phonopy:
  version: 2.16.3
  calculator: qe
  frequency_unit_conversion_factor: 15.633302
  symmetry_tolerance: 1.00000e-05
  configuration:
    create_displacements: ".TRUE."
    dim: "2 2 2"
    cell_filename: "../template/pw.scf.in"
    calculator: "qe"

physical_unit:
  atomic_mass: "AMU"
  length: "au"
  force_constants: "Ry/au^2"

space_group:
  type: "Fd-3m"
  number: 227
  Hall_symbol: "F 4d 2 3 -1d"

supercell_matrix:
- [   2,   0,   0 ]
- [   0,   2,   0 ]
- [   0,   0,   2 ]

primitive_cell:
  lattice:
  - [     0.000000000000000,     7.819972663117250,     7.819972663117250 ] # a
  - [     7.819972663117250,     0.000000000000000,     7.819972663117250 ] # b
  - [     7.819972663117250,     7.819972663117250,     0.000000000000000 ] # c
  points:
  - symbol: Fe1 # 1
    coordinates: [  0.750000000000000,  0.750000000000000,  0.750000000000000 ]
    mass: 55.845000
  - symbol: Fe1 # 2
    coordinates: [  0.500000000000000,  0.500000000000000,  0.500000000000000 ]
    mass: 55.845000
  - symbol: Fe2 # 3
    coordinates: [  0.125000000000000,  0.125000000000000,  0.125000000000000 ]
    mass: 55.845000
  - symbol: Fe2 # 4
    coordinates: [  0.125000000000000,  0.125000000000000,  0.625000000000000 ]
    mass: 55.845000
  - symbol: Fe2 # 5
    coordinates: [  0.125000000000000,  0.625000000000000,  0.125000000000000 ]
    mass: 55.845000
  - symbol: Fe2 # 6
    coordinates: [  0.625000000000000,  0.125000000000000,  0.125000000000000 ]
    mass: 55.845000
  - symbol: O  # 7
    coordinates: [  0.879436953400000,  0.879436953400000,  0.879436953400000 ]
    mass: 15.999400
  - symbol: O  # 8
    coordinates: [  0.370563046600000,  0.370563046600000,  0.370563046600000 ]
    mass: 15.999400
  - symbol: O  # 9
    coordinates: [  0.879436953400000,  0.879436953400000,  0.361689139900000 ]
    mass: 15.999400
  - symbol: O  # 10
    coordinates: [  0.370563046600000,  0.370563046600000,  0.888310860100000 ]
    mass: 15.999400
  - symbol: O  # 11
    coordinates: [  0.879436953400000,  0.361689139900000,  0.879436953400000 ]
    mass: 15.999400
  - symbol: O  # 12
    coordinates: [  0.370563046600000,  0.888310860100000,  0.370563046600000 ]
    mass: 15.999400
  - symbol: O  # 13
    coordinates: [  0.361689139900000,  0.879436953400000,  0.879436953400000 ]
    mass: 15.999400
  - symbol: O  # 14
    coordinates: [  0.888310860100000,  0.370563046600000,  0.370563046600000 ]
    mass: 15.999400
  reciprocal_lattice: # without 2pi
  - [    -0.063938842441002,     0.063938842441002,     0.063938842441002 ] # a*
  - [     0.063938842441002,    -0.063938842441002,     0.063938842441002 ] # b*
  - [     0.063938842441002,     0.063938842441002,    -0.063938842441002 ] # c*

unit_cell:
  lattice:
  - [     0.000000000000000,     7.819972663117250,     7.819972663117250 ] # a
  - [     7.819972663117250,     0.000000000000000,     7.819972663117250 ] # b
  - [     7.819972663117250,     7.819972663117250,     0.000000000000000 ] # c
  points:
  - symbol: Fe1 # 1
    coordinates: [  0.750000000000000,  0.750000000000000,  0.750000000000000 ]
    mass: 55.845000
    reduced_to: 1
  - symbol: Fe1 # 2
    coordinates: [  0.500000000000000,  0.500000000000000,  0.500000000000000 ]
    mass: 55.845000
    reduced_to: 2
  - symbol: Fe2 # 3
    coordinates: [  0.125000000000000,  0.125000000000000,  0.125000000000000 ]
    mass: 55.845000
    reduced_to: 3
  - symbol: Fe2 # 4
    coordinates: [  0.125000000000000,  0.125000000000000,  0.625000000000000 ]
    mass: 55.845000
    reduced_to: 4
  - symbol: Fe2 # 5
    coordinates: [  0.125000000000000,  0.625000000000000,  0.125000000000000 ]
    mass: 55.845000
    reduced_to: 5
  - symbol: Fe2 # 6
    coordinates: [  0.625000000000000,  0.125000000000000,  0.125000000000000 ]
    mass: 55.845000
    reduced_to: 6
  - symbol: O  # 7
    coordinates: [  0.879436953400000,  0.879436953400000,  0.879436953400000 ]
    mass: 15.999400
    reduced_to: 7
  - symbol: O  # 8
    coordinates: [  0.370563046600000,  0.370563046600000,  0.370563046600000 ]
    mass: 15.999400
    reduced_to: 8
  - symbol: O  # 9
    coordinates: [  0.879436953400000,  0.879436953400000,  0.361689139900000 ]
    mass: 15.999400
    reduced_to: 9
  - symbol: O  # 10
    coordinates: [  0.370563046600000,  0.370563046600000,  0.888310860100000 ]
    mass: 15.999400
    reduced_to: 10
  - symbol: O  # 11
    coordinates: [  0.879436953400000,  0.361689139900000,  0.879436953400000 ]
    mass: 15.999400
    reduced_to: 11
  - symbol: O  # 12
    coordinates: [  0.370563046600000,  0.888310860100000,  0.370563046600000 ]
    mass: 15.999400
    reduced_to: 12
  - symbol: O  # 13
    coordinates: [  0.361689139900000,  0.879436953400000,  0.879436953400000 ]
    mass: 15.999400
    reduced_to: 13
  - symbol: O  # 14
    coordinates: [  0.888310860100000,  0.370563046600000,  0.370563046600000 ]
    mass: 15.999400
    reduced_to: 14

supercell:
  lattice:
  - [     0.000000000000000,    15.639945326234500,    15.639945326234500 ] # a
  - [    15.639945326234500,     0.000000000000000,    15.639945326234500 ] # b
  - [    15.639945326234500,    15.639945326234500,     0.000000000000000 ] # c
  points:
  - symbol: Fe1 # 1
    coordinates: [  0.375000000000000,  0.375000000000000,  0.375000000000000 ]
    mass: 55.845000
    reduced_to: 1
  - symbol: Fe1 # 2
    coordinates: [  0.875000000000000,  0.375000000000000,  0.375000000000000 ]
    mass: 55.845000
    reduced_to: 1
  - symbol: Fe1 # 3
    coordinates: [  0.375000000000000,  0.875000000000000,  0.375000000000000 ]
    mass: 55.845000
    reduced_to: 1
  - symbol: Fe1 # 4
    coordinates: [  0.875000000000000,  0.875000000000000,  0.375000000000000 ]
    mass: 55.845000
    reduced_to: 1
  - symbol: Fe1 # 5
    coordinates: [  0.375000000000000,  0.375000000000000,  0.875000000000000 ]
    mass: 55.845000
    reduced_to: 1
  - symbol: Fe1 # 6
    coordinates: [  0.875000000000000,  0.375000000000000,  0.875000000000000 ]
    mass: 55.845000
    reduced_to: 1
  - symbol: Fe1 # 7
    coordinates: [  0.375000000000000,  0.875000000000000,  0.875000000000000 ]
    mass: 55.845000
    reduced_to: 1
  - symbol: Fe1 # 8
    coordinates: [  0.875000000000000,  0.875000000000000,  0.875000000000000 ]
    mass: 55.845000
    reduced_to: 1
  - symbol: Fe1 # 9
    coordinates: [  0.250000000000000,  0.250000000000000,  0.250000000000000 ]
    mass: 55.845000
    reduced_to: 9
  - symbol: Fe1 # 10
    coordinates: [  0.750000000000000,  0.250000000000000,  0.250000000000000 ]
    mass: 55.845000
    reduced_to: 9
  - symbol: Fe1 # 11
    coordinates: [  0.250000000000000,  0.750000000000000,  0.250000000000000 ]
    mass: 55.845000
    reduced_to: 9
  - symbol: Fe1 # 12
    coordinates: [  0.750000000000000,  0.750000000000000,  0.250000000000000 ]
    mass: 55.845000
    reduced_to: 9
  - symbol: Fe1 # 13
    coordinates: [  0.250000000000000,  0.250000000000000,  0.750000000000000 ]
    mass: 55.845000
    reduced_to: 9
  - symbol: Fe1 # 14
    coordinates: [  0.750000000000000,  0.250000000000000,  0.750000000000000 ]
    mass: 55.845000
    reduced_to: 9
  - symbol: Fe1 # 15
    coordinates: [  0.250000000000000,  0.750000000000000,  0.750000000000000 ]
    mass: 55.845000
    reduced_to: 9
  - symbol: Fe1 # 16
    coordinates: [  0.750000000000000,  0.750000000000000,  0.750000000000000 ]
    mass: 55.845000
    reduced_to: 9
  - symbol: Fe2 # 17
    coordinates: [  0.062500000000000,  0.062500000000000,  0.062500000000000 ]
    mass: 55.845000
    reduced_to: 17
  - symbol: Fe2 # 18
    coordinates: [  0.562500000000000,  0.062500000000000,  0.062500000000000 ]
    mass: 55.845000
    reduced_to: 17
  - symbol: Fe2 # 19
    coordinates: [  0.062500000000000,  0.562500000000000,  0.062500000000000 ]
    mass: 55.845000
    reduced_to: 17
  - symbol: Fe2 # 20
    coordinates: [  0.562500000000000,  0.562500000000000,  0.062500000000000 ]
    mass: 55.845000
    reduced_to: 17
  - symbol: Fe2 # 21
    coordinates: [  0.062500000000000,  0.062500000000000,  0.562500000000000 ]
    mass: 55.845000
    reduced_to: 17
  - symbol: Fe2 # 22
    coordinates: [  0.562500000000000,  0.062500000000000,  0.562500000000000 ]
    mass: 55.845000
    reduced_to: 17
  - symbol: Fe2 # 23
    coordinates: [  0.062500000000000,  0.562500000000000,  0.562500000000000 ]
    mass: 55.845000
    reduced_to: 17
  - symbol: Fe2 # 24
    coordinates: [  0.562500000000000,  0.562500000000000,  0.562500000000000 ]
    mass: 55.845000
    reduced_to: 17
  - symbol: Fe2 # 25
    coordinates: [  0.062500000000000,  0.062500000000000,  0.312500000000000 ]
    mass: 55.845000
    reduced_to: 25
  - symbol: Fe2 # 26
    coordinates: [  0.562500000000000,  0.062500000000000,  0.312500000000000 ]
    mass: 55.845000
    reduced_to: 25
  - symbol: Fe2 # 27
    coordinates: [  0.062500000000000,  0.562500000000000,  0.312500000000000 ]
    mass: 55.845000
    reduced_to: 25
  - symbol: Fe2 # 28
    coordinates: [  0.562500000000000,  0.562500000000000,  0.312500000000000 ]
    mass: 55.845000
    reduced_to: 25
  - symbol: Fe2 # 29
    coordinates: [  0.062500000000000,  0.062500000000000,  0.812500000000000 ]
    mass: 55.845000
    reduced_to: 25
  - symbol: Fe2 # 30
    coordinates: [  0.562500000000000,  0.062500000000000,  0.812500000000000 ]
    mass: 55.845000
    reduced_to: 25
  - symbol: Fe2 # 31
    coordinates: [  0.062500000000000,  0.562500000000000,  0.812500000000000 ]
    mass: 55.845000
    reduced_to: 25
  - symbol: Fe2 # 32
    coordinates: [  0.562500000000000,  0.562500000000000,  0.812500000000000 ]
    mass: 55.845000
    reduced_to: 25
  - symbol: Fe2 # 33
    coordinates: [  0.062500000000000,  0.312500000000000,  0.062500000000000 ]
    mass: 55.845000
    reduced_to: 33
  - symbol: Fe2 # 34
    coordinates: [  0.562500000000000,  0.312500000000000,  0.062500000000000 ]
    mass: 55.845000
    reduced_to: 33
  - symbol: Fe2 # 35
    coordinates: [  0.062500000000000,  0.812500000000000,  0.062500000000000 ]
    mass: 55.845000
    reduced_to: 33
  - symbol: Fe2 # 36
    coordinates: [  0.562500000000000,  0.812500000000000,  0.062500000000000 ]
    mass: 55.845000
    reduced_to: 33
  - symbol: Fe2 # 37
    coordinates: [  0.062500000000000,  0.312500000000000,  0.562500000000000 ]
    mass: 55.845000
    reduced_to: 33
  - symbol: Fe2 # 38
    coordinates: [  0.562500000000000,  0.312500000000000,  0.562500000000000 ]
    mass: 55.845000
    reduced_to: 33
  - symbol: Fe2 # 39
    coordinates: [  0.062500000000000,  0.812500000000000,  0.562500000000000 ]
    mass: 55.845000
    reduced_to: 33
  - symbol: Fe2 # 40
    coordinates: [  0.562500000000000,  0.812500000000000,  0.562500000000000 ]
    mass: 55.845000
    reduced_to: 33
  - symbol: Fe2 # 41
    coordinates: [  0.312500000000000,  0.062500000000000,  0.062500000000000 ]
    mass: 55.845000
    reduced_to: 41
  - symbol: Fe2 # 42
    coordinates: [  0.812500000000000,  0.062500000000000,  0.062500000000000 ]
    mass: 55.845000
    reduced_to: 41
  - symbol: Fe2 # 43
    coordinates: [  0.312500000000000,  0.562500000000000,  0.062500000000000 ]
    mass: 55.845000
    reduced_to: 41
  - symbol: Fe2 # 44
    coordinates: [  0.812500000000000,  0.562500000000000,  0.062500000000000 ]
    mass: 55.845000
    reduced_to: 41
  - symbol: Fe2 # 45
    coordinates: [  0.312500000000000,  0.062500000000000,  0.562500000000000 ]
    mass: 55.845000
    reduced_to: 41
  - symbol: Fe2 # 46
    coordinates: [  0.812500000000000,  0.062500000000000,  0.562500000000000 ]
    mass: 55.845000
    reduced_to: 41
  - symbol: Fe2 # 47
    coordinates: [  0.312500000000000,  0.562500000000000,  0.562500000000000 ]
    mass: 55.845000
    reduced_to: 41
  - symbol: Fe2 # 48
    coordinates: [  0.812500000000000,  0.562500000000000,  0.562500000000000 ]
    mass: 55.845000
    reduced_to: 41
  - symbol: O  # 49
    coordinates: [  0.439718476700000,  0.439718476700000,  0.439718476700000 ]
    mass: 15.999400
    reduced_to: 49
  - symbol: O  # 50
    coordinates: [  0.939718476700000,  0.439718476700000,  0.439718476700000 ]
    mass: 15.999400
    reduced_to: 49
  - symbol: O  # 51
    coordinates: [  0.439718476700000,  0.939718476700000,  0.439718476700000 ]
    mass: 15.999400
    reduced_to: 49
  - symbol: O  # 52
    coordinates: [  0.939718476700000,  0.939718476700000,  0.439718476700000 ]
    mass: 15.999400
    reduced_to: 49
  - symbol: O  # 53
    coordinates: [  0.439718476700000,  0.439718476700000,  0.939718476700000 ]
    mass: 15.999400
    reduced_to: 49
  - symbol: O  # 54
    coordinates: [  0.939718476700000,  0.439718476700000,  0.939718476700000 ]
    mass: 15.999400
    reduced_to: 49
  - symbol: O  # 55
    coordinates: [  0.439718476700000,  0.939718476700000,  0.939718476700000 ]
    mass: 15.999400
    reduced_to: 49
  - symbol: O  # 56
    coordinates: [  0.939718476700000,  0.939718476700000,  0.939718476700000 ]
    mass: 15.999400
    reduced_to: 49
  - symbol: O  # 57
    coordinates: [  0.185281523300000,  0.185281523300000,  0.185281523300000 ]
    mass: 15.999400
    reduced_to: 57
  - symbol: O  # 58
    coordinates: [  0.685281523300000,  0.185281523300000,  0.185281523300000 ]
    mass: 15.999400
    reduced_to: 57
  - symbol: O  # 59
    coordinates: [  0.185281523300000,  0.685281523300000,  0.185281523300000 ]
    mass: 15.999400
    reduced_to: 57
  - symbol: O  # 60
    coordinates: [  0.685281523300000,  0.685281523300000,  0.185281523300000 ]
    mass: 15.999400
    reduced_to: 57
  - symbol: O  # 61
    coordinates: [  0.185281523300000,  0.185281523300000,  0.685281523300000 ]
    mass: 15.999400
    reduced_to: 57
  - symbol: O  # 62
    coordinates: [  0.685281523300000,  0.185281523300000,  0.685281523300000 ]
    mass: 15.999400
    reduced_to: 57
  - symbol: O  # 63
    coordinates: [  0.185281523300000,  0.685281523300000,  0.685281523300000 ]
    mass: 15.999400
    reduced_to: 57
  - symbol: O  # 64
    coordinates: [  0.685281523300000,  0.685281523300000,  0.685281523300000 ]
    mass: 15.999400
    reduced_to: 57
  - symbol: O  # 65
    coordinates: [  0.439718476700000,  0.439718476700000,  0.180844569950000 ]
    mass: 15.999400
    reduced_to: 65
  - symbol: O  # 66
    coordinates: [  0.939718476700000,  0.439718476700000,  0.180844569950000 ]
    mass: 15.999400
    reduced_to: 65
  - symbol: O  # 67
    coordinates: [  0.439718476700000,  0.939718476700000,  0.180844569950000 ]
    mass: 15.999400
    reduced_to: 65
  - symbol: O  # 68
    coordinates: [  0.939718476700000,  0.939718476700000,  0.180844569950000 ]
    mass: 15.999400
    reduced_to: 65
  - symbol: O  # 69
    coordinates: [  0.439718476700000,  0.439718476700000,  0.680844569950000 ]
    mass: 15.999400
    reduced_to: 65
  - symbol: O  # 70
    coordinates: [  0.939718476700000,  0.439718476700000,  0.680844569950000 ]
    mass: 15.999400
    reduced_to: 65
  - symbol: O  # 71
    coordinates: [  0.439718476700000,  0.939718476700000,  0.680844569950000 ]
    mass: 15.999400
    reduced_to: 65
  - symbol: O  # 72
    coordinates: [  0.939718476700000,  0.939718476700000,  0.680844569950000 ]
    mass: 15.999400
    reduced_to: 65
  - symbol: O  # 73
    coordinates: [  0.185281523300000,  0.185281523300000,  0.444155430050000 ]
    mass: 15.999400
    reduced_to: 73
  - symbol: O  # 74
    coordinates: [  0.685281523300000,  0.185281523300000,  0.444155430050000 ]
    mass: 15.999400
    reduced_to: 73
  - symbol: O  # 75
    coordinates: [  0.185281523300000,  0.685281523300000,  0.444155430050000 ]
    mass: 15.999400
    reduced_to: 73
  - symbol: O  # 76
    coordinates: [  0.685281523300000,  0.685281523300000,  0.444155430050000 ]
    mass: 15.999400
    reduced_to: 73
  - symbol: O  # 77
    coordinates: [  0.185281523300000,  0.185281523300000,  0.944155430050000 ]
    mass: 15.999400
    reduced_to: 73
  - symbol: O  # 78
    coordinates: [  0.685281523300000,  0.185281523300000,  0.944155430050000 ]
    mass: 15.999400
    reduced_to: 73
  - symbol: O  # 79
    coordinates: [  0.185281523300000,  0.685281523300000,  0.944155430050000 ]
    mass: 15.999400
    reduced_to: 73
  - symbol: O  # 80
    coordinates: [  0.685281523300000,  0.685281523300000,  0.944155430050000 ]
    mass: 15.999400
    reduced_to: 73
  - symbol: O  # 81
    coordinates: [  0.439718476700000,  0.180844569950000,  0.439718476700000 ]
    mass: 15.999400
    reduced_to: 81
  - symbol: O  # 82
    coordinates: [  0.939718476700000,  0.180844569950000,  0.439718476700000 ]
    mass: 15.999400
    reduced_to: 81
  - symbol: O  # 83
    coordinates: [  0.439718476700000,  0.680844569950000,  0.439718476700000 ]
    mass: 15.999400
    reduced_to: 81
  - symbol: O  # 84
    coordinates: [  0.939718476700000,  0.680844569950000,  0.439718476700000 ]
    mass: 15.999400
    reduced_to: 81
  - symbol: O  # 85
    coordinates: [  0.439718476700000,  0.180844569950000,  0.939718476700000 ]
    mass: 15.999400
    reduced_to: 81
  - symbol: O  # 86
    coordinates: [  0.939718476700000,  0.180844569950000,  0.939718476700000 ]
    mass: 15.999400
    reduced_to: 81
  - symbol: O  # 87
    coordinates: [  0.439718476700000,  0.680844569950000,  0.939718476700000 ]
    mass: 15.999400
    reduced_to: 81
  - symbol: O  # 88
    coordinates: [  0.939718476700000,  0.680844569950000,  0.939718476700000 ]
    mass: 15.999400
    reduced_to: 81
  - symbol: O  # 89
    coordinates: [  0.185281523300000,  0.444155430050000,  0.185281523300000 ]
    mass: 15.999400
    reduced_to: 89
  - symbol: O  # 90
    coordinates: [  0.685281523300000,  0.444155430050000,  0.185281523300000 ]
    mass: 15.999400
    reduced_to: 89
  - symbol: O  # 91
    coordinates: [  0.185281523300000,  0.944155430050000,  0.185281523300000 ]
    mass: 15.999400
    reduced_to: 89
  - symbol: O  # 92
    coordinates: [  0.685281523300000,  0.944155430050000,  0.185281523300000 ]
    mass: 15.999400
    reduced_to: 89
  - symbol: O  # 93
    coordinates: [  0.185281523300000,  0.444155430050000,  0.685281523300000 ]
    mass: 15.999400
    reduced_to: 89
  - symbol: O  # 94
    coordinates: [  0.685281523300000,  0.444155430050000,  0.685281523300000 ]
    mass: 15.999400
    reduced_to: 89
  - symbol: O  # 95
    coordinates: [  0.185281523300000,  0.944155430050000,  0.685281523300000 ]
    mass: 15.999400
    reduced_to: 89
  - symbol: O  # 96
    coordinates: [  0.685281523300000,  0.944155430050000,  0.685281523300000 ]
    mass: 15.999400
    reduced_to: 89
  - symbol: O  # 97
    coordinates: [  0.180844569950000,  0.439718476700000,  0.439718476700000 ]
    mass: 15.999400
    reduced_to: 97
  - symbol: O  # 98
    coordinates: [  0.680844569950000,  0.439718476700000,  0.439718476700000 ]
    mass: 15.999400
    reduced_to: 97
  - symbol: O  # 99
    coordinates: [  0.180844569950000,  0.939718476700000,  0.439718476700000 ]
    mass: 15.999400
    reduced_to: 97
  - symbol: O  # 100
    coordinates: [  0.680844569950000,  0.939718476700000,  0.439718476700000 ]
    mass: 15.999400
    reduced_to: 97
  - symbol: O  # 101
    coordinates: [  0.180844569950000,  0.439718476700000,  0.939718476700000 ]
    mass: 15.999400
    reduced_to: 97
  - symbol: O  # 102
    coordinates: [  0.680844569950000,  0.439718476700000,  0.939718476700000 ]
    mass: 15.999400
    reduced_to: 97
  - symbol: O  # 103
    coordinates: [  0.180844569950000,  0.939718476700000,  0.939718476700000 ]
    mass: 15.999400
    reduced_to: 97
  - symbol: O  # 104
    coordinates: [  0.680844569950000,  0.939718476700000,  0.939718476700000 ]
    mass: 15.999400
    reduced_to: 97
  - symbol: O  # 105
    coordinates: [  0.444155430050000,  0.185281523300000,  0.185281523300000 ]
    mass: 15.999400
    reduced_to: 105
  - symbol: O  # 106
    coordinates: [  0.944155430050000,  0.185281523300000,  0.185281523300000 ]
    mass: 15.999400
    reduced_to: 105
  - symbol: O  # 107
    coordinates: [  0.444155430050000,  0.685281523300000,  0.185281523300000 ]
    mass: 15.999400
    reduced_to: 105
  - symbol: O  # 108
    coordinates: [  0.944155430050000,  0.685281523300000,  0.185281523300000 ]
    mass: 15.999400
    reduced_to: 105
  - symbol: O  # 109
    coordinates: [  0.444155430050000,  0.185281523300000,  0.685281523300000 ]
    mass: 15.999400
    reduced_to: 105
  - symbol: O  # 110
    coordinates: [  0.944155430050000,  0.185281523300000,  0.685281523300000 ]
    mass: 15.999400
    reduced_to: 105
  - symbol: O  # 111
    coordinates: [  0.444155430050000,  0.685281523300000,  0.685281523300000 ]
    mass: 15.999400
    reduced_to: 105
  - symbol: O  # 112
    coordinates: [  0.944155430050000,  0.685281523300000,  0.685281523300000 ]
    mass: 15.999400
    reduced_to: 105

displacements:
- atom:    1
  displacement:
    [   0.0000000000000000,  0.0141421356237309,  0.0141421356237309 ]
- atom:   17
  displacement:
    [   0.0000000000000000,  0.0141421356237309,  0.0141421356237309 ]
- atom:   49
  displacement:
    [   0.0000000000000000,  0.0141421356237309,  0.0141421356237309 ]
- atom:   49
  displacement:
    [   0.0000000000000000, -0.0141421356237309, -0.0141421356237309 ]
