LAMMPS data file via write_data, version 2 Apr 2025, timestep = 702, units = real

3528 atoms
5 atom types

0 44.929414 xlo xhi
0 44.929414 ylo yhi
0 44.929414 zlo zhi

Masses

1 55.845
2 55.845
3 15.9994
4 15.9994
5 1.008

Atoms # full

15 1 2 0.7949318432870282 18.124460959130936 10.203075553859676 6.026361833173097 0 0 0
36 1 3 -0.4013742683661345 22.03265155438279 10.595624874598574 4.580360734079202 0 0 0
11 1 2 0.7722283971668714 13.684711091044639 14.795649846560512 5.35578355224658 0 0 0
20 1 2 0.822618639895994 15.942827976595789 16.03629729098236 4.207191871150521 0 0 0
43 1 3 -0.6156299093492807 14.158512425514026 15.581704976536265 3.7067256439847713 0 0 0
50 1 3 -0.6161058332456785 13.959170805266334 12.853894928575366 4.280169534985394 0 0 0
66 2 4 -0.7058706410347083 16.477999605589332 11.905661360893838 3.581938532203365 0 0 0
68 2 5 0.3574016905569941 14.562241652174965 13.212657688246434 3.5880708882966283 0 0 0
72 13 4 -0.5464850924283939 11.58607367955287 15.906804613096915 4.925519002530999 0 0 0
73 13 5 0.2727275518895506 11.487048850311506 16.849612196682596 5.265391654920713 0 0 0
1 1 1 0.7926342592270722 17.421690193336353 12.773955751346993 4.941895577485266 0 0 0
22 1 2 0.7960146390516842 21.332605536676265 15.008286316680607 3.0041297038672994 0 0 0
28 1 2 0.8476203292691463 19.271548579347247 14.622285420748574 4.678587117237575 0 0 0
32 1 3 -0.573980233037825 19.518039285482264 14.805139020410127 2.6640852525014873 0 0 0
39 1 3 -0.7339688265434723 17.222962918879237 14.665605049099232 4.592324750613551 0 0 0
45 1 3 -0.6143107342816104 21.458855603554653 15.028197158603914 4.759391997825817 0 0 0
56 1 3 -0.5977279020758021 19.233246417016066 12.5887311538021 4.609971262673058 0 0 0
67 2 5 0.363301568997104 17.14203655773758 12.092773918790998 2.8690093695247407 0 0 0
14 1 2 0.7491371809364067 9.801306467434893 18.746188401551557 5.64958143577448 0 0 0
55 1 3 -0.5005002160616289 10.825475242081268 21.6096123840575 4.408551034296653 0 0 0
4 1 1 0.8097662464802199 13.613277351766616 17.214880512391254 4.5057042258886595 0 0 0
8 1 1 0.8730896009954734 15.29196301192471 21.248015837627914 2.5198198676649546 0 0 0
25 1 2 0.8394642550298343 14.910409048538538 19.608568226483445 4.423009109586263 0 0 0
31 1 3 -0.5923389319227219 15.066494667560358 19.438798895541403 2.4468817685731756 0 0 0
34 1 3 -0.5645517243801839 12.938362317082444 19.02012483623068 4.358878184785339 0 0 0
51 1 3 -0.9363745685962397 15.031978626955285 21.69503316106538 3.9919872867098616 0 0 0
53 1 3 -0.7746509402531176 15.335253167702767 17.49778764621997 4.808002721142732 0 0 0
2 1 1 0.9081937381931645 17.16400587313203 21.581566303288106 4.295558009187274 0 0 0
6 1 1 0.9131521613556869 21.691819119062234 17.266165882415173 4.477139843908679 0 0 0
9 1 1 0.8404003461641368 19.395817529563836 16.741813355333278 2.892322782892864 0 0 0
16 1 2 0.8554649015356462 18.159626755264032 18.104344288914053 4.851292867537391 0 0 0
18 1 2 0.757188902145583 20.36894940141711 20.302524615260516 2.7700599716419023 0 0 0
24 1 2 0.8527877094855943 16.95876538925401 19.261579469929707 2.7217375948636597 0 0 0
37 1 3 -0.6206870994693537 21.528272359626737 19.260709521884603 4.383595473649929 0 0 0
41 1 3 -0.7022215218091199 16.895845175499627 19.588780961408123 4.524698693463152 0 0 0
48 1 3 -0.6837079617974307 19.513715904353834 16.752630407385677 4.709704189291776 0 0 0
57 1 3 -0.6148060025894772 19.200231736732825 21.501717579448712 4.29049225015258 0 0 0
59 1 3 -0.6162182602631711 18.892401150800445 18.716182909530918 2.9973172186814354 0 0 0
60 1 3 -0.4642058148308457 21.801016812716664 21.991913917842936 1.9448091708506028 0 0 0
61 1 3 -0.4507773648894598 17.09895345362062 16.930956280509562 2.455999110454797 0 0 0
63 1 3 -0.5809198804216404 17.100386489037515 21.155819829846358 2.252462743489818 0 0 0
64 1 3 -0.5730621904794819 21.30282381627819 16.7899520375478 2.5038085342567964 0 0 0
27 1 2 0.7471230502506326 10.792074662042726 23.37234591517045 4.587994242475723 0 0 0
5 1 1 0.8479105084882118 13.704740563707418 26.094710588471607 4.5820222415302805 0 0 0
12 1 2 0.970610362310821 14.608867403039495 22.46489739372385 5.058066973562533 0 0 0
21 1 2 0.8929778125104593 16.716864833415393 24.793958156121437 4.109442018139705 0 0 0
26 1 2 0.8247369407351491 15.581857803771124 28.01380986094798 4.936451024739173 0 0 0
35 1 3 -0.5693417483392746 13.580143839106357 27.94113840695425 4.469252077806442 0 0 0
44 1 3 -0.489455314500296 13.074700865776773 23.92549142903215 4.179127025301323 0 0 0
54 1 3 -0.7867513034649514 15.490292025787946 26.00767878747693 4.542977678147707 0 0 0
7 1 1 0.9083685274443961 21.38006257406346 26.051260772933283 4.575616039296553 0 0 0
10 1 1 0.7916927006127943 19.09991721919227 25.697289498084647 2.9220520878162706 0 0 0
17 1 2 0.8244967774561481 17.89524322840042 26.773283286168876 6.049239469522166 0 0 0
23 1 2 0.825347766830648 21.244393831909335 24.11911292821323 2.650458032852908 0 0 0
29 1 2 0.862059298828879 19.08993201429015 23.48790701659811 4.354368441720358 0 0 0
33 1 3 -0.5773025444202584 19.35239979179495 23.86730309891194 2.349920978208439 0 0 0
38 1 3 -0.7957547029128246 21.579174068607973 28.020922974467506 4.681992180355446 0 0 0
40 1 3 -0.9039038298904277 17.165975264136897 23.393923349186405 4.380676250361284 0 0 0
42 1 3 -0.6267992176949083 17.46448006137131 28.15511230961365 4.670017648808233 0 0 0
46 1 3 -0.6753383814077394 21.092939096629514 23.968801171723147 4.45574241946814 0 0 0
49 1 3 -0.6789036766566487 19.263004701589786 25.72139304023024 4.673910007134457 0 0 0
62 1 3 -0.4642243340810515 17.193690455353227 25.563510663304804 2.3398446945322755 0 0 0
65 1 3 -0.596673944464478 21.020529439948383 26.0664942787411 2.550377278916041 0 0 0
13 1 2 0.8447412257483168 14.604220412219446 30.383246720565836 6.1068127355122614 0 0 0
52 1 3 -0.648104294933016 15.486579840319973 29.972458875572947 4.49916676256275 0 0 0
69 3 4 -0.6171670610771796 17.60509957522004 30.563556253790733 2.613886123102897 0 0 0
71 3 5 0.3627549797113377 16.648062765304083 30.484976694101665 2.922314036219894 0 0 0
3 1 1 0.7488564875926377 17.29331007742329 30.12979730557085 5.065513096911792 0 0 0
19 1 2 0.7957485478644144 20.93376760578459 29.012901093675236 3.887574139580314 0 0 0
30 1 2 0.7831748032035855 20.148450208846924 32.31022558725291 5.706198024126766 0 0 0
47 1 3 -0.4979972684227158 21.65214269650262 31.94777490150685 4.595540031949171 0 0 0
58 1 3 -0.6484689917752938 19.234508414739214 30.672412691833284 4.961278080828706 0 0 0
70 3 5 0.3157547208070531 18.10374515107461 31.164607017199504 3.256964671639848 0 0 0
183 1 3 -0.5022599586674499 15.488846521158061 32.18108901487988 6.384935582641174 0 0 0
268 1 3 -0.6065350149826871 16.244379429764187 10.268874934850713 5.845025225131109 0 0 0
304 1 3 -0.5203784729525121 18.152186726255326 8.355548856675806 6.260551570656085 0 0 0
153 1 2 0.7869797185629044 15.147427128895089 11.530738094906368 5.010450288716375 0 0 0
350 15 4 -0.6160338599526711 18.664252903276907 38.05223631761772 5.901587138985898 0 0 0
292 1 3 -0.6128805687482836 8.73623002154136 21.400541075303664 6.229706050851625 0 0 0
197 1 3 -0.8126572088696117 10.773072150731975 19.492811207502125 6.402364815293948 0 0 0
303 1 3 -0.443543072324267 8.477100088120123 25.28623704948561 6.195740060942185 0 0 0
349 15 5 0.3760297305034463 18.151395327362877 37.29100788533834 6.161530110028897 0 0 0
294 1 3 -0.6940546039903553 17.14695568657864 21.51777008537075 6.302890973831878 0 0 0
272 1 3 -0.6916293900621346 13.421945434964035 26.01381758994746 6.322309373688009 0 0 0
309 1 3 -0.605511496223916 13.050554308232789 21.4368728555953 6.343127142426012 0 0 0
251 1 3 -0.7187322733845809 10.676641761597473 23.420076057758283 6.295936418002517 0 0 0
161 1 2 0.900083878826806 17.059807709936326 23.393833963000613 6.288741828912701 0 0 0
154 1 2 0.8698835942286041 12.782195929020551 19.406980949497207 6.39099491553984 0 0 0
253 1 3 -0.663061232311643 19.100911127313413 23.341189015792477 6.3712726880950825 0 0 0
99 1 1 0.9121312361104456 19.244279437257852 21.342009118280465 6.321432184383625 0 0 0
200 1 3 -0.5907632621633214 19.294669152228476 19.315111274358983 6.369187623452657 0 0 0
157 1 2 0.914142505490917 21.377562688507773 19.450523251423405 6.40209914971103 0 0 0
343 11 4 -0.5855718002151189 6.130840879871146 22.41181786382887 6.411149123219028 0 0 0
281 1 3 -0.5194742326970239 22.16859833013801 4.640140917312216 11.534564714209099 0 0 0
340 10 4 -0.6066265458770357 19.68380503286231 3.570343957842295 9.805302771298608 0 0 0
341 10 5 0.3403833113020234 20.483621221846743 4.11477345918831 9.47083084459143 0 0 0
342 10 5 0.3561605020307453 19.482094426889244 3.980207622306363 10.719735415950188 0 0 0
101 1 1 0.8821424928178461 12.02461851157666 10.082933406941441 11.366748387222131 0 0 0
163 1 2 0.9269114581996857 9.401928330067605 11.488845106987625 11.356936684602845 0 0 0
174 1 2 0.7889164737573329 11.140007204630077 11.455698690065242 9.376165461419914 0 0 0
255 1 3 -0.9936551063445539 10.797560154305215 11.007992758846079 11.126946920753795 0 0 0
347 12 5 0.2801556168444368 11.113884625299269 9.604561318227345 8.140312971913682 0 0 0
110 1 2 0.942367496169054 14.549528645505386 10.124269229941538 9.92483137108127 0 0 0
136 1 2 0.8406717714215058 15.833743450412747 8.144999931456852 11.809893252496854 0 0 0
145 1 2 0.8157657490002774 13.68457962571794 6.826970674822047 11.467730515770217 0 0 0
1973 1 2 0.955438564100822 22.144275202358305 34.930683987395945 9.918498514590219 0 0 0
186 1 3 -0.9694053711246458 15.198855655315924 10.638017960897198 11.007066227158749 0 0 0
221 1 3 -0.80171896610672 12.731483559352142 10.952264254582191 8.903077562883338 0 0 0
236 1 3 -0.5569065690706074 15.272596607842244 9.310537827672096 8.405233687679386 0 0 0
264 1 3 -0.6393544353997493 15.193608872190127 6.623305948099894 10.91769733880055 0 0 0
276 1 3 -0.6009212921217415 21.325826815359203 33.86611067878524 6.438082826301513 0 0 0
314 1 3 -0.7081746508033103 13.183517024331612 8.749086851194404 10.911753631306496 0 0 0
331 7 4 -0.5063000856677368 16.05873374429964 6.798370549832163 8.024564875768089 0 0 0
332 7 5 0.3886361927002692 15.732440936679911 7.106445359059554 8.876584244356701 0 0 0
333 7 5 0.407389046615894 17.566427486001636 5.959101813399939 8.062140345651416 0 0 0
346 12 4 -0.6478538699410896 10.418654458941122 9.198219013788286 8.763009571052294 0 0 0
348 12 5 0.298535695460482 10.943148310229011 9.055448253393957 9.643870635009382 0 0 0
77 1 1 0.8305635191834693 17.447602844695222 8.528526636214572 8.30144259753689 0 0 0
105 1 1 0.8923619280634684 19.386250416114805 8.540797226007415 10.507138985875336 0 0 0
117 1 2 0.9202391207094391 19.31238204457543 5.983784477579175 9.743978769486937 0 0 0
123 1 2 0.9155628684338795 19.89249195624514 8.658094391095583 7.047032997654564 0 0 0
149 1 2 0.8325382772290379 21.72411761021424 6.5691960333447 11.137870985063966 0 0 0
156 1 2 0.8565104464555691 21.676318343589358 10.585898679642696 6.623915721361655 0 0 0
166 1 2 0.8756193714295574 17.18347986960866 10.449924214890201 10.561433389042728 0 0 0
177 1 2 0.9183167969144866 19.365813291536156 10.52121118118321 8.63313917099826 0 0 0
193 1 3 -0.9333102330291693 19.52669617698889 6.407705373476165 11.012008589056675 0 0 0
199 1 3 -0.8601602001668993 19.68595086542902 10.502867289112572 6.645663185387569 0 0 0
273 1 3 -0.6411527682979147 21.56996034544182 8.537108787439708 6.4617668838000615 0 0 0
211 1 3 -0.774260354925398 17.44139289839264 10.596874987418595 8.624181639353678 0 0 0
217 1 3 -0.6272702856817567 18.498529531434833 6.365792777921278 8.165683274436667 0 0 0
224 1 3 -0.6104208787367559 21.64077786424142 10.664280090797362 8.743710260872579 0 0 0
246 1 3 -0.824191476114254 19.463650753409343 8.68149775314758 8.662591630658682 0 0 0
258 1 3 -0.6467905783484283 19.200561293575046 10.431332694534612 10.580112182302024 0 0 0
602 1 3 -0.6019757915521362 11.079905361349368 8.766863738445345 12.800708564568318 0 0 0
288 1 3 -0.6704242135115825 17.290757206304807 8.437572782717004 10.398425487057112 0 0 0
74 15 5 0.389437215302729 18.963277922098598 38.40672289729042 6.738165829816169 0 0 0
318 1 3 -0.657724286558429 21.612603459857958 8.515720010926893 10.78038629624263 0 0 0
325 5 4 -0.6349407689024062 21.342336497665016 6.132854655822082 8.94581989598452 0 0 0
326 5 5 0.3249138593718304 21.199069122284453 7.108917970397004 8.860423953220131 0 0 0
327 5 5 0.3559021189537793 22.318801845652185 6.5116868099142495 6.95952476152011 0 0 0
87 1 1 0.8640756858319907 7.198634173340856 13.51974299110828 11.748076255946676 0 0 0
95 1 1 0.7968809641880944 10.778135829552182 13.220768461512337 7.235584175330037 0 0 0
114 1 2 0.7835693036551731 9.54455067745564 13.965663389047851 10.676777680049963 0 0 0
134 1 2 0.8007835351087805 7.357680413594914 16.008073500661443 11.27337355146158 0 0 0
190 1 3 -0.8222670834459058 10.804558918802297 15.100966569469643 10.962902352843905 0 0 0
215 1 3 -0.4894883230547338 8.16537833667258 15.190069110746625 9.450230051340096 0 0 0
228 1 3 -0.7741460718640962 10.795794490527895 12.978323646466427 9.083150056025406 0 0 0
250 1 3 -0.7001145378965928 9.950671343018147 14.683622395332169 6.997679057449278 0 0 0
262 1 3 -0.5506598327782286 6.109432056838657 14.571306205975551 11.062978160489916 0 0 0
296 1 3 -0.9963803204007886 8.438173509420674 12.661061646716888 11.42514740917105 0 0 0
351 13 5 0.4172099161457881 9.46940784887094 15.53443823516387 6.85931221185602 0 0 0
352 14 4 -0.6058420392991617 5.927658773682869 15.047608548631564 7.4488338584975 0 0 0
354 14 5 0.3787076091692493 6.723956447043071 15.466465613805111 7.116887550900977 0 0 0
81 1 1 0.7926351685537485 13.019616470976564 13.252980131539088 8.644824056218605 0 0 0
90 1 1 0.9285141262039094 15.299862439648162 12.60338484223417 10.897363875302851 0 0 0
121 1 2 0.7902620839203025 11.760612304423159 15.535786881916671 7.310457892263443 0 0 0
127 1 2 0.8027629539303357 11.748162122078524 12.55964366248973 11.819208531855326 0 0 0
137 1 2 0.8837762950758804 15.887987345464214 15.836593479459427 11.604389163394204 0 0 0
141 1 2 0.8594658756824816 16.07840127723521 11.09718010772008 7.702482650705622 0 0 0
146 1 2 0.913553367190059 12.716495692436087 15.062806571171313 10.948599659267886 0 0 0
171 1 2 0.8897779516393948 15.219901761863069 15.087444922559266 8.517227023879844 0 0 0
181 1 3 -0.8165943093376845 15.174062526694808 15.003380444183351 6.644422728252053 0 0 0
202 1 3 -0.6236063707232696 13.10778861015449 15.212119872665758 8.847634961379294 0 0 0
241 1 3 -0.598038014622204 15.240135732511014 12.858901546731689 8.990118659961233 0 0 0
265 1 3 -0.6553666443523672 15.008097817226881 14.884401246464014 10.756887902678063 0 0 0
278 1 3 -0.6832064832454108 13.083155533700383 13.054266766096147 10.793492899595815 0 0 0
308 1 3 -0.6949151125268185 12.416929540225809 13.782031852962216 6.804636948012893 0 0 0
337 9 4 -0.6429267450267199 14.238209926067446 11.92059446502692 6.940496254486838 0 0 0
338 9 5 0.3270706056238116 14.541419672213125 12.893877936391629 6.845056716981822 0 0 0
339 9 5 0.3580471842132742 12.88341573259704 10.85835683128614 7.932402915576039 0 0 0
84 1 1 0.8801046409139869 21.744405966157476 12.75769087938028 8.471963954442252 0 0 0
98 1 1 0.8730896153671793 19.578466148715513 12.45416141327289 6.595714247718764 0 0 0
118 1 2 0.8472657929565175 18.2667497521256 13.954430486881243 9.352867266578892 0 0 0
124 1 2 0.8130418631947252 20.580512081290202 16.118596276947518 7.300629047825155 0 0 0
130 1 2 0.8711605571586744 20.562983988395715 12.04552447613299 11.417093061022552 0 0 0
150 1 2 0.931207456055449 21.28503421970656 15.240485946125496 10.948847320858743 0 0 0
160 1 2 0.8539723851171864 17.110284408195223 14.960626455396019 6.528039903590653 0 0 0
194 1 3 -0.6569329151727149 19.38360907710646 15.210330796578079 10.924062554542473 0 0 0
206 1 3 -0.6162279979475269 21.54760318417652 14.759926566852013 8.834470574298848 0 0 0
218 1 3 -0.6960996050308277 17.21054018648231 15.10581583698765 8.642540925474432 0 0 0
231 1 3 -0.6490006670837204 19.720425062877464 12.456811561076025 8.54581796412311 0 0 0
252 1 3 -0.6346756772311078 19.132339052348968 14.493055254940616 6.5978441780544035 0 0 0
282 1 3 -0.6458542360173244 21.60487750796038 12.984344087202357 10.714249408394013 0 0 0
293 1 3 -0.6809663421474782 17.29674718551554 12.746934045007482 6.702522827100962 0 0 0
299 1 3 -0.5925159188501979 17.25183106611299 12.56893910118694 10.90722197874418 0 0 0
311 1 3 -0.7535061106489783 21.612263782329595 12.593396152859125 6.579148615206965 0 0 0
277 1 3 -0.5228219667484033 4.487694359603072 21.458281947586904 10.773509966607078 0 0 0
75 1 1 0.7923400275685412 8.113767753584792 17.447146399231013 8.951981389505411 0 0 0
88 1 1 0.8854247815708781 6.493303251735789 21.432037870318595 11.023502496741923 0 0 0
608 1 3 -0.6545240057490904 19.389749987512797 25.53648874811257 12.654238340360157 0 0 0
102 1 1 0.921576964351392 10.900407778116966 16.980748790999684 10.982962026713913 0 0 0
109 1 2 0.7960962177924047 5.437770783193923 17.930868242308815 11.41234882972078 0 0 0
140 1 2 0.8064543466240545 7.496311262547977 21.060070436868855 7.607037155477878 0 0 0
164 1 2 0.8862347848937402 8.422958112023132 19.51010256404124 10.978793133292037 0 0 0
175 1 2 0.9080451040935333 10.94829567508155 19.577928649626852 8.35457810705731 0 0 0
184 1 3 -0.7342732669507517 6.498676117457915 19.45367259925062 11.061935851013759 0 0 0
336 8 5 0.3322589761913274 20.08949578250592 38.37320060100712 9.514253257880725 0 0 0
209 1 3 -0.5582128395443858 8.794582023300398 19.582540574134992 8.78512473648831 0 0 0
229 1 3 -0.6950221500920788 10.968174403923582 21.462124077199263 8.38338128706649 0 0 0
234 1 3 -0.5346593328124285 6.125717486816 16.998555904783576 9.899455051864347 0 0 0
240 1 3 -0.7855978008972682 6.486302846407906 21.530906430655172 8.861330147637107 0 0 0
244 1 3 -0.4699964833468177 10.535282961195657 17.210865289217494 8.60756731420815 0 0 0
256 1 3 -0.660297336563066 10.703973648243188 19.243714686004676 10.633400044924349 0 0 0
286 1 3 -0.6123401751114956 8.743508630366362 17.43938414627134 10.892254056915892 0 0 0
601 1 3 -0.6171998379395908 21.129571735554936 32.22932732661034 12.652184056019662 0 0 0
297 1 3 -0.6995953494758744 8.468543064581194 21.434759169614995 11.038759467404374 0 0 0
302 1 3 -0.6393659235611563 8.198924443505186 16.98433597616332 6.7378979953768905 0 0 0
322 4 4 -0.5881308142273055 6.559593347208552 18.903291492753063 7.82397211897404 0 0 0
323 4 5 0.3614171957196768 7.416200095587703 17.553230936236336 6.71413320922192 0 0 0
324 4 5 0.3563025399828173 6.4980846757974735 19.09575397563703 8.783047122314175 0 0 0
509 1 2 0.9189795505202416 19.23675302370478 23.50098144671786 12.824871958647028 0 0 0
344 11 5 0.3377899523084301 5.5347267626315695 21.252146263308955 8.768553091095752 0 0 0
345 11 5 0.2962551938932831 5.492605252427943 21.813217270768153 6.844937520869085 0 0 0
353 14 5 0.4182037338371434 5.9849634916662025 15.23455243244181 8.390123457910352 0 0 0
82 1 1 0.9165856437235765 12.950086263767329 21.510239888651153 8.522194710136358 0 0 0
91 1 1 0.9238313435619592 15.0039480913356 21.367779116682243 10.74498361318566 0 0 0
93 1 1 0.8580955945436277 15.238622746685428 16.929980681144055 6.602177295927414 0 0 0
111 1 2 0.8341546641197922 13.94094346505289 18.06230087074906 9.480725691483148 0 0 0
128 1 2 0.8654562893242346 11.571130081025128 20.089567151628845 11.592057995507671 0 0 0
142 1 2 0.8926248455500346 16.01663077175955 20.1454321029669 7.379579193977612 0 0 0
568 1 3 -0.6682193027846349 17.361881719225458 10.736830799766151 12.730335574562512 0 0 0
187 1 3 -0.6427162237613357 15.095303136312355 19.355216933371043 10.860120053214539 0 0 0
222 1 3 -0.6907967140198277 12.74087136748554 19.519862743161784 8.36747979450273 0 0 0
237 1 3 -0.6938788533949395 15.307296659358181 17.0505603179214 8.560426767797988 0 0 0
242 1 3 -0.6652218255579663 14.930235464576477 21.49430335694678 8.692983032976882 0 0 0
269 1 3 -0.6516591192061933 14.902031830449848 19.23060804697424 6.564580398874869 0 0 0
271 1 3 -0.618528170899405 13.104671939965218 17.227328219239038 6.596522697871371 0 0 0
279 1 3 -0.6306765165855067 12.998221891289598 21.49828089691046 10.597015411179006 0 0 0
372 1 1 0.9160217712560179 17.134010725939707 30.057594775057794 12.643687299612212 0 0 0
315 1 3 -0.6869743215935589 12.756361203328051 17.019977537644962 10.984178837209768 0 0 0
78 1 1 0.9186514490966186 17.333650141334715 17.227568358596375 8.66108195678776 0 0 0
85 1 1 0.9182978063721795 21.393302259313586 21.39640375493897 8.463506059851044 0 0 0
96 1 1 0.8988163608825966 10.902899450876886 21.5169471562925 6.4190378792739615 0 0 0
106 1 1 0.9286315903083087 19.30640137275356 17.184134558587473 10.779879021250087 0 0 0
131 1 2 0.8912520097391575 20.332827244180613 20.31192987942681 11.569906914414316 0 0 0
652 1 3 -0.6004955844169322 18.86803309975991 4.4580914202700175 12.803768574591885 0 0 0
167 1 2 0.9169361789622384 17.10246986962653 19.330364493608993 10.77214180098667 0 0 0
178 1 2 0.9194013249528854 19.282224990689173 19.296042629492003 8.519929194173518 0 0 0
380 1 1 0.8989854894935785 21.87619678198439 8.902023434362915 12.72760203671901 0 0 0
212 1 3 -0.6597756840142701 17.265277166284946 19.2389625965705 8.677031077569483 0 0 0
225 1 3 -0.6394625051964704 21.283134454750527 19.455289106172728 8.397025112925043 0 0 0
232 1 3 -0.6453617132159772 19.314782994157515 21.299272581109516 8.398269438190022 0 0 0
247 1 3 -0.6349365573661303 19.26835859509124 17.325424469159955 8.74544291260837 0 0 0
259 1 3 -0.6716124778413078 19.242684876711035 19.306904549607474 10.69239554141449 0 0 0
274 1 3 -0.6505046723574621 21.7002323442647 17.437033358344117 6.4849513108512715 0 0 0
283 1 3 -0.6756182238220574 21.432784776932326 21.48026106215338 10.535364947281705 0 0 0
289 1 3 -0.6374663642771776 17.3065270987758 17.318775758549812 10.673677199064858 0 0 0
383 1 1 0.8708719845456117 21.48730960862193 34.367430888866004 12.661040457881104 0 0 0
300 1 3 -0.6497455110628161 17.02080246357203 21.31734943003688 10.848408099389834 0 0 0
305 1 3 -0.6370590322801134 17.265889474780387 16.966385141386212 6.541135338599907 0 0 0
312 1 3 -0.657082732372176 21.26951191138796 21.354860213040897 6.457042856824341 0 0 0
319 1 3 -0.6700199437374217 21.289211333631055 17.122464286330988 10.944419551253239 0 0 0
144 1 2 0.7724840926728586 4.521811799296063 23.06827486475507 11.571530215724918 0 0 0
76 1 1 0.8768551587822646 8.529569981978812 25.628029834786343 8.229865765327803 0 0 0
103 1 1 0.9131232172423555 10.919908434743101 25.585160342020224 10.80682409831496 0 0 0
115 1 2 0.8288730019449737 9.717929315106954 22.57493400155865 9.781207499527133 0 0 0
135 1 2 0.7908548004212301 7.627448030327574 25.010891563859055 11.548308171688289 0 0 0
159 1 2 0.8045544191265459 8.722508434718705 23.342100402207905 6.558789861435548 0 0 0
165 1 2 0.8457419330577239 8.738266283096268 27.76983144464107 10.576946312714304 0 0 0
170 1 2 0.814469008960124 6.6664933858589075 23.60769129289999 8.340526339200219 0 0 0
176 1 2 0.8470412369700966 10.683676792727233 27.79089902014747 8.631838997381635 0 0 0
185 1 3 -0.5422288142114944 6.574662164792657 27.72239829705984 11.114474450492452 0 0 0
191 1 3 -0.6758092229669727 10.855795192077931 23.539641742960093 10.84224410880836 0 0 0
198 1 3 -0.5357264969446935 11.225473383837219 27.89119621864424 6.480111047384907 0 0 0
210 1 3 -0.5412120961450503 8.690415947749608 27.895641335925486 8.561498537172051 0 0 0
216 1 3 -0.7460906467712758 8.47784633006171 23.665705971533225 8.349169312766405 0 0 0
235 1 3 -0.4397074895693402 6.5174202882979015 25.478614772201393 8.087440507669593 0 0 0
245 1 3 -0.6613435998640276 10.724942697081628 25.684485682634527 8.59522986520593 0 0 0
597 1 3 -0.6809498440900904 12.878128962219236 32.035464616127264 12.794278879148045 0 0 0
257 1 3 -0.6798063941259378 10.644584836850342 27.645104294680316 10.550348091037595 0 0 0
263 1 3 -0.6005239434301259 6.129363895995012 23.484146496332716 10.549151469299899 0 0 0
287 1 3 -0.6628520049118908 8.737181380908332 25.64992695445861 10.47720725852634 0 0 0
335 8 5 0.3325410929071967 18.509571694857467 38.1818670994975 9.207257298497339 0 0 0
94 1 1 0.8794081577145876 15.41048025639728 25.735579677833467 6.505301487666092 0 0 0
112 1 2 0.8645037672797241 13.929872952602922 26.99226691920745 9.547231806342799 0 0 0
122 1 2 0.8382498720607131 11.79260256180111 24.93767152299995 7.507576663098453 0 0 0
138 1 2 0.8902427733200624 16.11939374250272 24.634312404859827 11.678226268780728 0 0 0
147 1 2 0.9184283999642022 12.941242055233007 23.51122102765627 10.721249764983181 0 0 0
155 1 2 0.8581936758031643 13.462538409425294 27.95202514511926 6.470361700400706 0 0 0
172 1 2 0.932417121891553 14.912078352988207 23.408322218731776 8.645754632163108 0 0 0
182 1 3 -0.6827015177151976 15.108202364077169 23.633968260466766 6.440374807645178 0 0 0
188 1 3 -0.5909289674046737 15.167925526723373 27.92746842840131 10.890278974629066 0 0 0
203 1 3 -0.6612651007275083 13.03567449343874 23.467069148059092 8.710881914552077 0 0 0
223 1 3 -0.6795924296970505 12.95608582717665 27.90180988250966 8.62197140922418 0 0 0
238 1 3 -0.6042549229967709 15.228021231203897 25.507100625000476 8.543462150894841 0 0 0
266 1 3 -0.6709525129030193 14.963140919209037 23.429730907031228 10.687216174872109 0 0 0
270 1 3 -0.8107944080114217 15.368641558349712 27.800735873563056 6.685601291616669 0 0 0
605 1 3 -0.7632782488661344 10.86584585115428 34.13679433549262 12.738756648633906 0 0 0
316 1 3 -0.6633146300763311 12.839085947649128 25.535500840252634 10.871882935871708 0 0 0
79 1 1 0.9343308408569808 17.237150461713707 25.81802609068235 8.66082533301769 0 0 0
107 1 1 0.9290324414996134 19.302500711794544 25.682929741138672 10.636969904779834 0 0 0
119 1 2 0.898494908687346 18.090749174728874 22.58076731652441 9.37715510925657 0 0 0
125 1 2 0.8779361767271824 20.272607014785933 24.66422763747134 7.182620475353349 0 0 0
151 1 2 0.9234896806629147 21.351571500064953 23.559290349857132 10.573208981016705 0 0 0
158 1 2 0.8940256060670856 21.523520903837607 27.919707577062898 6.751564740808311 0 0 0
604 1 3 -0.6589077671747517 10.877782109954387 25.543232388880455 12.769485148233073 0 0 0
168 1 2 0.9266005354334287 17.224546802869888 27.837692449523598 10.656716862657294 0 0 0
179 1 2 0.9039359245756747 19.094779518457287 27.73071909522886 8.612330338995804 0 0 0
195 1 3 -0.6446410023046247 19.330231703430144 23.639437863845362 10.723515522687759 0 0 0
201 1 3 -0.6950706550027652 19.3553177724766 28.020703879681015 6.690088708650549 0 0 0
207 1 3 -0.6601263240217048 21.45149271872688 23.416000941700936 8.591908789987794 0 0 0
213 1 3 -0.7797889025064163 17.217867945368756 27.728231528987706 8.680018533291332 0 0 0
219 1 3 -0.6496059561431892 17.074939753190495 23.549257903441166 8.540749311063253 0 0 0
226 1 3 -0.6657318859321272 21.349808833470636 28.0382430085516 8.70956701179407 0 0 0
248 1 3 -0.6955154659164444 19.141173049065717 25.82364699005031 8.670038300974495 0 0 0
382 1 1 0.9059207455650702 21.31468876823474 25.583363218026925 12.622895539522695 0 0 0
260 1 3 -0.6285181127310125 19.105899429927188 27.64090578254391 10.629537189969929 0 0 0
275 1 3 -0.6991044370417191 21.503844034530328 25.95621703577482 6.696007071030703 0 0 0
290 1 3 -0.6819514800552786 17.211324571617318 25.75346196153216 10.680056475492174 0 0 0
306 1 3 -0.8040885452292421 17.26195663675583 25.451625206514905 6.7042277573125 0 0 0
320 1 3 -0.6132075602621352 21.368446573742958 25.64693466570318 10.603825941242487 0 0 0
89 1 1 0.8479570545213608 6.810940105876882 29.535744326345746 11.517516862420129 0 0 0
97 1 1 0.8503387746259041 11.611154303422687 29.68363163715352 6.758560813318224 0 0 0
116 1 2 0.7360810764584441 9.839059615949308 30.328321534481237 9.745523827706275 0 0 0
192 1 3 -0.6070265819555373 11.035800607139752 31.998751105292833 10.91919131056777 0 0 0
230 1 3 -0.7059047236582781 11.11800213759568 29.869164304276527 8.500083185127524 0 0 0
298 1 3 -0.7032640776945472 8.56013547434682 29.811896682812325 11.02963254369218 0 0 0
83 1 1 0.8618417037135983 13.368669243926071 30.104279557899268 8.569154308263865 0 0 0
92 1 1 0.9109400344524439 15.355552719673227 30.11450188608477 10.571303469065425 0 0 0
129 1 2 0.7645605839345487 11.975677514993087 28.968148157165984 11.809753319493618 0 0 0
139 1 2 0.8708749499209205 16.343089247362446 33.71255760621826 12.019396592751814 0 0 0
143 1 2 0.8667348730610092 16.77599279616225 29.015179625367853 7.37654120685538 0 0 0
148 1 2 0.8642103860393305 13.249469584957955 32.08716503495057 10.542084129410872 0 0 0
173 1 2 0.8416981569721232 15.332227077836176 32.064177359780224 8.574293147180333 0 0 0
633 1 3 -0.5960512185101594 15.193734268216552 29.765576052750994 12.6664493581494 0 0 0
204 1 3 -0.5597015971471644 13.283552592153201 32.095845168638554 8.53420518035519 0 0 0
243 1 3 -0.73623610126863 15.329951525461247 30.105889512421165 8.69465695444884 0 0 0
267 1 3 -0.6352156986548815 15.219151477671382 32.18111640600237 10.683418762562647 0 0 0
280 1 3 -0.6810553404081477 13.364575967137057 30.20332394733941 10.465029790288796 0 0 0
310 1 3 -0.8740817162433907 13.189689394383366 29.917380467922186 6.581676835467613 0 0 0
86 1 1 0.8778329361793937 21.607238435318788 30.21970033395058 8.563307343189205 0 0 0
100 1 1 0.8705901450708614 19.34718605951008 30.016567255581755 6.904454691306612 0 0 0
120 1 2 0.9316202816318911 17.989350640374983 31.03234600800516 9.101980564808864 0 0 0
126 1 2 0.9605578632004785 20.91369100517767 32.97826380983908 8.097001605579603 0 0 0
132 1 2 0.8315184596863504 20.633354617133996 29.284963472534645 11.46878489463748 0 0 0
152 1 2 0.873303772122611 21.570853759405274 32.38912956739215 10.508413011204821 0 0 0