  14   14
1 1
     0.360092664608214    -0.000000000000000     0.000000000000000
     0.000000000000000     0.360092664608214    -0.000000000000000
     0.000000000000000    -0.000000000000000     0.360092664608214
1 2
    -0.009427197104254     0.000000000000000    -0.000000000000000
    -0.000000000000000    -0.009427197104254     0.000000000000000
    -0.000000000000000     0.000000000000000    -0.009427197104254
1 3
    -0.027040166363439     0.020186307612618     0.020186307612618
     0.020186307612618    -0.027040166363439     0.020186307612618
     0.020186307612618     0.020186307612618    -0.027040166363439
1 4
    -0.027040166363439     0.020186307612618    -0.020186307612618
     0.020186307612618    -0.027040166363439    -0.020186307612618
    -0.020186307612618    -0.020186307612618    -0.027040166363439
1 5
    -0.027040166363439    -0.020186307612618     0.020186307612618
    -0.020186307612618    -0.027040166363439    -0.020186307612618
     0.020186307612618    -0.020186307612618    -0.027040166363439
1 6
    -0.027040166363439    -0.020186307612618    -0.020186307612618
    -0.020186307612618    -0.027040166363439     0.020186307612618
    -0.020186307612618     0.020186307612618    -0.027040166363439
1 7
    -0.063154761329065    -0.060482378528792    -0.060482378528792
    -0.060482378528792    -0.063154761329066    -0.060482378528792
    -0.060482378528792    -0.060482378528792    -0.063154761329065
1 8
     0.002528564352048     0.001594702568271     0.001594702568271
     0.001594702568271     0.002528564352048     0.001594702568271
     0.001594702568271     0.001594702568271     0.002528564352048
1 9
    -0.063154761329065    -0.060482378528792     0.060482378528792
    -0.060482378528792    -0.063154761329066     0.060482378528792
     0.060482378528792     0.060482378528792    -0.063154761329066
1 10
     0.002528564352048     0.001594702568271    -0.001594702568271
     0.001594702568271     0.002528564352048    -0.001594702568271
    -0.001594702568271    -0.001594702568271     0.002528564352048
1 11
    -0.063154761329065     0.060482378528792    -0.060482378528792
     0.060482378528792    -0.063154761329066     0.060482378528792
    -0.060482378528792     0.060482378528792    -0.063154761329066
1 12
     0.002528564352048    -0.001594702568271     0.001594702568271
    -0.001594702568271     0.002528564352048    -0.001594702568271
     0.001594702568271    -0.001594702568271     0.002528564352048
1 13
    -0.063154761329065     0.060482378528792     0.060482378528792
     0.060482378528792    -0.063154761329066    -0.060482378528792
     0.060482378528792    -0.060482378528792    -0.063154761329065
1 14
     0.002528564352048    -0.001594702568271    -0.001594702568271
    -0.001594702568271     0.002528564352048     0.001594702568271
    -0.001594702568271     0.001594702568271     0.002528564352048
2 1
    -0.009427197104254    -0.000000000000000    -0.000000000000000
    -0.000000000000000    -0.009427197104254     0.000000000000000
     0.000000000000000     0.000000000000000    -0.009427197104254
2 2
     0.360092664608214    -0.000000000000000     0.000000000000000
     0.000000000000000     0.360092664608214    -0.000000000000000
    -0.000000000000000    -0.000000000000000     0.360092664608214
2 3
    -0.027040166363439     0.020186307612618     0.020186307612618
     0.020186307612618    -0.027040166363439     0.020186307612618
     0.020186307612618     0.020186307612618    -0.027040166363439
2 4
    -0.027040166363439     0.020186307612618    -0.020186307612618
     0.020186307612618    -0.027040166363439    -0.020186307612618
    -0.020186307612618    -0.020186307612618    -0.027040166363439
2 5
    -0.027040166363439    -0.020186307612618     0.020186307612618
    -0.020186307612618    -0.027040166363439    -0.020186307612618
     0.020186307612618    -0.020186307612618    -0.027040166363439
2 6
    -0.027040166363439    -0.020186307612618    -0.020186307612618
    -0.020186307612618    -0.027040166363439     0.020186307612618
    -0.020186307612618     0.020186307612618    -0.027040166363439
2 7
     0.002528564352048     0.001594702568271     0.001594702568271
     0.001594702568271     0.002528564352048     0.001594702568271
     0.001594702568271     0.001594702568271     0.002528564352048
2 8
    -0.063154761329066    -0.060482378528792    -0.060482378528792
    -0.060482378528792    -0.063154761329065    -0.060482378528792
    -0.060482378528792    -0.060482378528792    -0.063154761329065
2 9
     0.002528564352048     0.001594702568271    -0.001594702568271
     0.001594702568271     0.002528564352048    -0.001594702568271
    -0.001594702568271    -0.001594702568271     0.002528564352048
2 10
    -0.063154761329066    -0.060482378528792     0.060482378528792
    -0.060482378528792    -0.063154761329065     0.060482378528792
     0.060482378528792     0.060482378528792    -0.063154761329066
2 11
     0.002528564352048    -0.001594702568271     0.001594702568271
    -0.001594702568271     0.002528564352048    -0.001594702568271
     0.001594702568271    -0.001594702568271     0.002528564352048
2 12
    -0.063154761329066     0.060482378528792    -0.060482378528792
     0.060482378528792    -0.063154761329065     0.060482378528792
    -0.060482378528792     0.060482378528792    -0.063154761329065
2 13
     0.002528564352048    -0.001594702568271    -0.001594702568271
    -0.001594702568271     0.002528564352048     0.001594702568271
    -0.001594702568271     0.001594702568271     0.002528564352048
2 14
    -0.063154761329066     0.060482378528792     0.060482378528792
     0.060482378528792    -0.063154761329065    -0.060482378528792
     0.060482378528792    -0.060482378528792    -0.063154761329066
3 1
    -0.026847051965963     0.020139437039627     0.020139437039627
     0.020139437039627    -0.026847051965963     0.020139437039627
     0.020139437039627     0.020139437039627    -0.026847051965963
3 2
    -0.026847051965963     0.020139437039627     0.020139437039627
     0.020139437039627    -0.026847051965963     0.020139437039627
     0.020139437039627     0.020139437039627    -0.026847051965963
3 3
     0.219653907489574     0.011353635283385     0.011353635283385
     0.011353635283385     0.219653907489574     0.011353635283384
     0.011353635283384     0.011353635283385     0.219653907489574
3 4
    -0.006189280906989    -0.079446300042171    -0.002755973428412
    -0.079446300042171    -0.006189280906989    -0.002755973428412
     0.002579500789031     0.002579500789031     0.000006035156377
3 5
    -0.006189280906989    -0.002755973428412    -0.079446300042171
     0.002579500789031     0.000006035156377     0.002579500789031
    -0.079446300042171    -0.002755973428412    -0.006189280906989
3 6
     0.000006035156377     0.002579500789031     0.002579500789031
    -0.002755973428412    -0.006189280906989    -0.079446300042171
    -0.002755973428412    -0.079446300042171    -0.006189280906989
3 7
     0.001382772059348     0.000469140600580     0.000469140600580
     0.000469140600580     0.001382772059348     0.000469140600580
     0.000469140600580     0.000469140600580     0.001382772059348
3 8
     0.001382772059348     0.000469140600580     0.000469140600580
     0.000469140600580     0.001382772059348     0.000469140600580
     0.000469140600580     0.000469140600580     0.001382772059348
3 9
    -0.006240546148625     0.002469545684557    -0.003953989092437
     0.002469545684557    -0.006240546148625    -0.003953989092437
     0.015010438002291     0.015010438002291    -0.065695321747657
3 10
    -0.006240546148625     0.002469545684557    -0.003953989092437
     0.002469545684557    -0.006240546148625    -0.003953989092437
     0.015010438002291     0.015010438002291    -0.065695321747657
3 11
    -0.006240546148625    -0.003953989092437     0.002469545684557
     0.015010438002291    -0.065695321747657     0.015010438002291
     0.002469545684557    -0.003953989092437    -0.006240546148625
3 12
    -0.006240546148625    -0.003953989092437     0.002469545684557
     0.015010438002291    -0.065695321747657     0.015010438002291
     0.002469545684557    -0.003953989092437    -0.006240546148625
3 13
    -0.065695321747657     0.015010438002291     0.015010438002291
    -0.003953989092437    -0.006240546148625     0.002469545684557
    -0.003953989092437     0.002469545684557    -0.006240546148625
3 14
    -0.065695321747657     0.015010438002291     0.015010438002291
    -0.003953989092437    -0.006240546148625     0.002469545684557
    -0.003953989092437     0.002469545684557    -0.006240546148625
4 1
    -0.026847051965963     0.020139437039627    -0.020139437039627
     0.020139437039627    -0.026847051965963    -0.020139437039627
    -0.020139437039627    -0.020139437039627    -0.026847051965963
4 2
    -0.026847051965963     0.020139437039627    -0.020139437039627
     0.020139437039627    -0.026847051965963    -0.020139437039627
    -0.020139437039627    -0.020139437039627    -0.026847051965963
4 3
    -0.006189280906989    -0.079446300042171     0.002755973428412
    -0.079446300042171    -0.006189280906989     0.002755973428412
    -0.002579500789031    -0.002579500789031     0.000006035156377
4 4
     0.219653907489574     0.011353635283385    -0.011353635283385
     0.011353635283385     0.219653907489574    -0.011353635283384
    -0.011353635283384    -0.011353635283385     0.219653907489574
4 5
     0.000006035156377     0.002579500789031    -0.002579500789031
    -0.002755973428412    -0.006189280906989     0.079446300042171
     0.002755973428412     0.079446300042171    -0.006189280906989
4 6
    -0.006189280906989    -0.002755973428412     0.079446300042171
     0.002579500789031     0.000006035156377    -0.002579500789031
     0.079446300042171     0.002755973428412    -0.006189280906989
4 7
    -0.006240546148625     0.002469545684557     0.003953989092437
     0.002469545684557    -0.006240546148625     0.003953989092437
    -0.015010438002291    -0.015010438002291    -0.065695321747657
4 8
    -0.006240546148625     0.002469545684557     0.003953989092437
     0.002469545684557    -0.006240546148625     0.003953989092437
    -0.015010438002291    -0.015010438002291    -0.065695321747657
4 9
     0.001382772059348     0.000469140600580    -0.000469140600580
     0.000469140600580     0.001382772059348    -0.000469140600580
    -0.000469140600580    -0.000469140600580     0.001382772059348
4 10
     0.001382772059348     0.000469140600580    -0.000469140600580
     0.000469140600580     0.001382772059348    -0.000469140600580
    -0.000469140600580    -0.000469140600580     0.001382772059348
4 11
    -0.065695321747657     0.015010438002291    -0.015010438002291
    -0.003953989092437    -0.006240546148625    -0.002469545684557
     0.003953989092437    -0.002469545684557    -0.006240546148625
4 12
    -0.065695321747657     0.015010438002291    -0.015010438002291
    -0.003953989092437    -0.006240546148625    -0.002469545684557
     0.003953989092437    -0.002469545684557    -0.006240546148625
4 13
    -0.006240546148625    -0.003953989092437    -0.002469545684557
     0.015010438002291    -0.065695321747657    -0.015010438002291
    -0.002469545684557     0.003953989092437    -0.006240546148625
4 14
    -0.006240546148625    -0.003953989092437    -0.002469545684557
     0.015010438002291    -0.065695321747657    -0.015010438002291
    -0.002469545684557     0.003953989092437    -0.006240546148625
5 1
    -0.026847051965963    -0.020139437039627     0.020139437039627
    -0.020139437039627    -0.026847051965963    -0.020139437039627
     0.020139437039627    -0.020139437039627    -0.026847051965963
5 2
    -0.026847051965963    -0.020139437039627     0.020139437039627
    -0.020139437039627    -0.026847051965963    -0.020139437039627
     0.020139437039627    -0.020139437039627    -0.026847051965963
5 3
    -0.006189280906989     0.002755973428412    -0.079446300042171
    -0.002579500789031     0.000006035156377    -0.002579500789031
    -0.079446300042171     0.002755973428412    -0.006189280906989
5 4
     0.000006035156377    -0.002579500789031     0.002579500789031
     0.002755973428412    -0.006189280906989     0.079446300042171
    -0.002755973428412     0.079446300042171    -0.006189280906989
5 5
     0.219653907489574    -0.011353635283385     0.011353635283384
    -0.011353635283385     0.219653907489574    -0.011353635283385
     0.011353635283385    -0.011353635283384     0.219653907489574
5 6
    -0.006189280906989     0.079446300042171    -0.002755973428412
     0.079446300042171    -0.006189280906989     0.002755973428412
     0.002579500789031    -0.002579500789031     0.000006035156377
5 7
    -0.006240546148625     0.003953989092437     0.002469545684557
    -0.015010438002291    -0.065695321747657    -0.015010438002291
     0.002469545684557     0.003953989092437    -0.006240546148625
5 8
    -0.006240546148625     0.003953989092437     0.002469545684557
    -0.015010438002291    -0.065695321747657    -0.015010438002291
     0.002469545684557     0.003953989092437    -0.006240546148625
5 9
    -0.065695321747657    -0.015010438002291     0.015010438002291
     0.003953989092437    -0.006240546148625    -0.002469545684557
    -0.003953989092437    -0.002469545684557    -0.006240546148625
5 10
    -0.065695321747657    -0.015010438002291     0.015010438002291
     0.003953989092437    -0.006240546148625    -0.002469545684557
    -0.003953989092437    -0.002469545684557    -0.006240546148625
5 11
     0.001382772059348    -0.000469140600580     0.000469140600580
    -0.000469140600580     0.001382772059348    -0.000469140600580
     0.000469140600580    -0.000469140600580     0.001382772059348
5 12
     0.001382772059348    -0.000469140600580     0.000469140600580
    -0.000469140600580     0.001382772059348    -0.000469140600580
     0.000469140600580    -0.000469140600580     0.001382772059348
5 13
    -0.006240546148625    -0.002469545684557    -0.003953989092437
    -0.002469545684557    -0.006240546148625     0.003953989092437
     0.015010438002291    -0.015010438002291    -0.065695321747657
5 14
    -0.006240546148625    -0.002469545684557    -0.003953989092437
    -0.002469545684557    -0.006240546148625     0.003953989092437
     0.015010438002291    -0.015010438002291    -0.065695321747657
6 1
    -0.026847051965963    -0.020139437039627    -0.020139437039627
    -0.020139437039627    -0.026847051965963     0.020139437039627
    -0.020139437039627     0.020139437039627    -0.026847051965963
6 2
    -0.026847051965963    -0.020139437039627    -0.020139437039627
    -0.020139437039627    -0.026847051965963     0.020139437039627
    -0.020139437039627     0.020139437039627    -0.026847051965963
6 3
     0.000006035156377    -0.002579500789031    -0.002579500789031
     0.002755973428412    -0.006189280906989    -0.079446300042171
     0.002755973428412    -0.079446300042171    -0.006189280906989
6 4
    -0.006189280906989     0.002755973428412     0.079446300042171
    -0.002579500789031     0.000006035156377     0.002579500789031
     0.079446300042171    -0.002755973428412    -0.006189280906989
6 5
    -0.006189280906989     0.079446300042171     0.002755973428412
     0.079446300042171    -0.006189280906989    -0.002755973428412
    -0.002579500789031     0.002579500789031     0.000006035156377
6 6
     0.219653907489574    -0.011353635283385    -0.011353635283384
    -0.011353635283385     0.219653907489574     0.011353635283385
    -0.011353635283385     0.011353635283384     0.219653907489574
6 7
    -0.065695321747657    -0.015010438002291    -0.015010438002291
     0.003953989092437    -0.006240546148625     0.002469545684557
     0.003953989092437     0.002469545684557    -0.006240546148625
6 8
    -0.065695321747657    -0.015010438002291    -0.015010438002291
     0.003953989092437    -0.006240546148625     0.002469545684557
     0.003953989092437     0.002469545684557    -0.006240546148625
6 9
    -0.006240546148625     0.003953989092437    -0.002469545684557
    -0.015010438002291    -0.065695321747657     0.015010438002291
    -0.002469545684557    -0.003953989092437    -0.006240546148625
6 10
    -0.006240546148625     0.003953989092437    -0.002469545684557
    -0.015010438002291    -0.065695321747657     0.015010438002291
    -0.002469545684557    -0.003953989092437    -0.006240546148625
6 11
    -0.006240546148625    -0.002469545684557     0.003953989092437
    -0.002469545684557    -0.006240546148625    -0.003953989092437
    -0.015010438002291     0.015010438002291    -0.065695321747657
6 12
    -0.006240546148625    -0.002469545684557     0.003953989092437
    -0.002469545684557    -0.006240546148625    -0.003953989092437
    -0.015010438002291     0.015010438002291    -0.065695321747657
6 13
     0.001382772059348    -0.000469140600580    -0.000469140600580
    -0.000469140600580     0.001382772059348     0.000469140600580
    -0.000469140600580     0.000469140600580     0.001382772059348
6 14
     0.001382772059348    -0.000469140600580    -0.000469140600580
    -0.000469140600580     0.001382772059348     0.000469140600580
    -0.000469140600580     0.000469140600580     0.001382772059348
7 1
    -0.062986913624648    -0.060608938268255    -0.060608938268255
    -0.060608938268255    -0.062986913624648    -0.060608938268255
    -0.060608938268255    -0.060608938268255    -0.062986913624648
7 2
     0.002672723979296     0.001520468730615     0.001520468730615
     0.001520468730615     0.002672723979296     0.001520468730615
     0.001520468730615     0.001520468730615     0.002672723979296
7 3
     0.001185148088375     0.000523271392447     0.000523271392447
     0.000523271392447     0.001185148088375     0.000523271392447
     0.000523271392447     0.000523271392447     0.001185148088375
7 4
    -0.006288263481986     0.002680300628456    -0.015030779696619
     0.002680300628456    -0.006288263481986    -0.015030779696619
     0.003905363126862     0.003905363126862    -0.065693188052945
7 5
    -0.006288263481986    -0.015030779696619     0.002680300628456
     0.003905363126862    -0.065693188052945     0.003905363126862
     0.002680300628456    -0.015030779696619    -0.006288263481986
7 6
    -0.065693188052945     0.003905363126862     0.003905363126862
    -0.015030779696619    -0.006288263481986     0.002680300628456
    -0.015030779696619     0.002680300628456    -0.006288263481986
7 7
     0.214704172395637     0.073014444386130     0.073014444386130
     0.073014444386129     0.214704172395637     0.073014444386129
     0.073014444386129     0.073014444386129     0.214704172395637
7 8
     0.004497589804843     0.000801871464234     0.000801871464234
     0.000801871464234     0.004497589804843     0.000801871464234
     0.000801871464234     0.000801871464234     0.004497589804843
7 9
    -0.022799737152778    -0.029052000060767     0.000321038853027
    -0.029052000060767    -0.022799737152778     0.000321038853027
    -0.000348060938670    -0.000348060938670    -0.003224723352495
7 10
    -0.018038080088268     0.022246475593974    -0.000264268785100
     0.022246475593974    -0.018038080088268    -0.000264268785100
     0.000290810038132     0.000290810038132     0.003097341601398
7 11
    -0.022799737152778     0.000321038853027    -0.029052000060767
    -0.000348060938670    -0.003224723352495    -0.000348060938670
    -0.029052000060767     0.000321038853027    -0.022799737152778
7 12
    -0.018038080088268    -0.000264268785100     0.022246475593974
     0.000290810038132     0.003097341601398     0.000290810038132
     0.022246475593974    -0.000264268785100    -0.018038080088268
7 13
    -0.003224723352495    -0.000348060938670    -0.000348060938670
     0.000321038853027    -0.022799737152778    -0.029052000060767
     0.000321038853027    -0.029052000060767    -0.022799737152778
7 14
     0.003097341601398     0.000290810038132     0.000290810038132
    -0.000264268785100    -0.018038080088268     0.022246475593974
    -0.000264268785100     0.022246475593974    -0.018038080088268
8 1
     0.002672723979296     0.001520468730615     0.001520468730615
     0.001520468730615     0.002672723979296     0.001520468730615
     0.001520468730615     0.001520468730615     0.002672723979296
8 2
    -0.062986913624648    -0.060608938268255    -0.060608938268255
    -0.060608938268255    -0.062986913624648    -0.060608938268255
    -0.060608938268255    -0.060608938268255    -0.062986913624648
8 3
     0.001185148088375     0.000523271392447     0.000523271392447
     0.000523271392447     0.001185148088375     0.000523271392447
     0.000523271392447     0.000523271392447     0.001185148088375
8 4
    -0.006288263481986     0.002680300628456    -0.015030779696619
     0.002680300628456    -0.006288263481986    -0.015030779696619
     0.003905363126862     0.003905363126862    -0.065693188052945
8 5
    -0.006288263481986    -0.015030779696619     0.002680300628456
     0.003905363126862    -0.065693188052945     0.003905363126862
     0.002680300628456    -0.015030779696619    -0.006288263481986
8 6
    -0.065693188052945     0.003905363126862     0.003905363126862
    -0.015030779696619    -0.006288263481986     0.002680300628456
    -0.015030779696619     0.002680300628456    -0.006288263481986
8 7
     0.004497589804843     0.000801871464234     0.000801871464234
     0.000801871464234     0.004497589804843     0.000801871464234
     0.000801871464234     0.000801871464234     0.004497589804843
8 8
     0.214704172395637     0.073014444386129     0.073014444386129
     0.073014444386130     0.214704172395637     0.073014444386130
     0.073014444386129     0.073014444386129     0.214704172395637
8 9
    -0.018038080088268     0.022246475593974    -0.000264268785100
     0.022246475593974    -0.018038080088268    -0.000264268785100
     0.000290810038132     0.000290810038132     0.003097341601398
8 10
    -0.022799737152778    -0.029052000060767     0.000321038853027
    -0.029052000060767    -0.022799737152778     0.000321038853027
    -0.000348060938670    -0.000348060938670    -0.003224723352495
8 11
    -0.018038080088268    -0.000264268785100     0.022246475593974
     0.000290810038132     0.003097341601398     0.000290810038132
     0.022246475593974    -0.000264268785100    -0.018038080088268
8 12
    -0.022799737152778     0.000321038853027    -0.029052000060767
    -0.000348060938670    -0.003224723352495    -0.000348060938670
    -0.029052000060767     0.000321038853027    -0.022799737152778
8 13
     0.003097341601398     0.000290810038132     0.000290810038132
    -0.000264268785100    -0.018038080088268     0.022246475593974
    -0.000264268785100     0.022246475593974    -0.018038080088268
8 14
    -0.003224723352495    -0.000348060938670    -0.000348060938670
     0.000321038853027    -0.022799737152778    -0.029052000060767
     0.000321038853027    -0.029052000060767    -0.022799737152778
9 1
    -0.062986913624648    -0.060608938268255     0.060608938268255
    -0.060608938268255    -0.062986913624648     0.060608938268255
     0.060608938268255     0.060608938268255    -0.062986913624648
9 2
     0.002672723979296     0.001520468730615    -0.001520468730615
     0.001520468730615     0.002672723979296    -0.001520468730615
    -0.001520468730615    -0.001520468730615     0.002672723979296
9 3
    -0.006288263481986     0.002680300628456     0.015030779696619
     0.002680300628456    -0.006288263481986     0.015030779696619
    -0.003905363126862    -0.003905363126862    -0.065693188052945
9 4
     0.001185148088375     0.000523271392447    -0.000523271392447
     0.000523271392447     0.001185148088375    -0.000523271392447
    -0.000523271392447    -0.000523271392447     0.001185148088375
9 5
    -0.065693188052945     0.003905363126862    -0.003905363126862
    -0.015030779696619    -0.006288263481986    -0.002680300628456
     0.015030779696619    -0.002680300628456    -0.006288263481986
9 6
    -0.006288263481986    -0.015030779696619    -0.002680300628456
     0.003905363126862    -0.065693188052945    -0.003905363126862
    -0.002680300628456     0.015030779696619    -0.006288263481986
9 7
    -0.022799737152778    -0.029052000060767    -0.000321038853027
    -0.029052000060767    -0.022799737152778    -0.000321038853027
     0.000348060938670     0.000348060938670    -0.003224723352495
9 8
    -0.018038080088268     0.022246475593974     0.000264268785100
     0.022246475593974    -0.018038080088268     0.000264268785100
    -0.000290810038132    -0.000290810038132     0.003097341601398
9 9
     0.214704172395637     0.073014444386130    -0.073014444386130
     0.073014444386129     0.214704172395637    -0.073014444386129
    -0.073014444386129    -0.073014444386129     0.214704172395637
9 10
     0.004497589804843     0.000801871464234    -0.000801871464234
     0.000801871464234     0.004497589804843    -0.000801871464234
    -0.000801871464234    -0.000801871464234     0.004497589804843
9 11
    -0.003224723352495    -0.000348060938670     0.000348060938670
     0.000321038853027    -0.022799737152778     0.029052000060767
    -0.000321038853027     0.029052000060767    -0.022799737152778
9 12
     0.003097341601398     0.000290810038132    -0.000290810038132
    -0.000264268785100    -0.018038080088268    -0.022246475593974
     0.000264268785100    -0.022246475593974    -0.018038080088268
9 13
    -0.022799737152778     0.000321038853027     0.029052000060767
    -0.000348060938670    -0.003224723352495     0.000348060938670
     0.029052000060767    -0.000321038853027    -0.022799737152778
9 14
    -0.018038080088268    -0.000264268785100    -0.022246475593974
     0.000290810038132     0.003097341601398    -0.000290810038132
    -0.022246475593974     0.000264268785100    -0.018038080088268
10 1
     0.002672723979296     0.001520468730615    -0.001520468730615
     0.001520468730615     0.002672723979296    -0.001520468730615
    -0.001520468730615    -0.001520468730615     0.002672723979296
10 2
    -0.062986913624648    -0.060608938268255     0.060608938268255
    -0.060608938268255    -0.062986913624648     0.060608938268255
     0.060608938268255     0.060608938268255    -0.062986913624648
10 3
    -0.006288263481986     0.002680300628456     0.015030779696619
     0.002680300628456    -0.006288263481986     0.015030779696619
    -0.003905363126862    -0.003905363126862    -0.065693188052945
10 4
     0.001185148088375     0.000523271392447    -0.000523271392447
     0.000523271392447     0.001185148088375    -0.000523271392447
    -0.000523271392447    -0.000523271392447     0.001185148088375
10 5
    -0.065693188052945     0.003905363126862    -0.003905363126862
    -0.015030779696619    -0.006288263481986    -0.002680300628456
     0.015030779696619    -0.002680300628456    -0.006288263481986
10 6
    -0.006288263481986    -0.015030779696619    -0.002680300628456
     0.003905363126862    -0.065693188052945    -0.003905363126862
    -0.002680300628456     0.015030779696619    -0.006288263481986
10 7
    -0.018038080088268     0.022246475593974     0.000264268785100
     0.022246475593974    -0.018038080088268     0.000264268785100
    -0.000290810038132    -0.000290810038132     0.003097341601398
10 8
    -0.022799737152778    -0.029052000060767    -0.000321038853027
    -0.029052000060767    -0.022799737152778    -0.000321038853027
     0.000348060938670     0.000348060938670    -0.003224723352495
10 9
     0.004497589804843     0.000801871464234    -0.000801871464234
     0.000801871464234     0.004497589804843    -0.000801871464234
    -0.000801871464234    -0.000801871464234     0.004497589804843
10 10
     0.214704172395637     0.073014444386129    -0.073014444386129
     0.073014444386130     0.214704172395637    -0.073014444386130
    -0.073014444386129    -0.073014444386129     0.214704172395637
10 11
     0.003097341601398     0.000290810038132    -0.000290810038132
    -0.000264268785100    -0.018038080088268    -0.022246475593974
     0.000264268785100    -0.022246475593974    -0.018038080088268
10 12
    -0.003224723352495    -0.000348060938670     0.000348060938670
     0.000321038853027    -0.022799737152778     0.029052000060767
    -0.000321038853027     0.029052000060767    -0.022799737152778
10 13
    -0.018038080088268    -0.000264268785100    -0.022246475593974
     0.000290810038132     0.003097341601398    -0.000290810038132
    -0.022246475593974     0.000264268785100    -0.018038080088268
10 14
    -0.022799737152778     0.000321038853027     0.029052000060767
    -0.000348060938670    -0.003224723352495     0.000348060938670
     0.029052000060767    -0.000321038853027    -0.022799737152778
11 1
    -0.062986913624648     0.060608938268255    -0.060608938268255
     0.060608938268255    -0.062986913624648     0.060608938268255
    -0.060608938268255     0.060608938268255    -0.062986913624648
11 2
     0.002672723979296    -0.001520468730615     0.001520468730615
    -0.001520468730615     0.002672723979296    -0.001520468730615
     0.001520468730615    -0.001520468730615     0.002672723979296
11 3
    -0.006288263481986     0.015030779696619     0.002680300628456
    -0.003905363126862    -0.065693188052945    -0.003905363126862
     0.002680300628456     0.015030779696619    -0.006288263481986
11 4
    -0.065693188052945    -0.003905363126862     0.003905363126862
     0.015030779696619    -0.006288263481986    -0.002680300628456
    -0.015030779696619    -0.002680300628456    -0.006288263481986
11 5
     0.001185148088375    -0.000523271392447     0.000523271392447
    -0.000523271392447     0.001185148088375    -0.000523271392447
     0.000523271392447    -0.000523271392447     0.001185148088375
11 6
    -0.006288263481986    -0.002680300628456    -0.015030779696619
    -0.002680300628456    -0.006288263481986     0.015030779696619