phonopy:
  version: 2.16.3
  calculator: qe
  frequency_unit_conversion_factor: 108.970772
  symmetry_tolerance: 1.00000e-05
  configuration:
    atom_name: "Ni H D C S N"
    dim: "2 1 1"
    mp: "10"
    band_points: "25"
    band: "0.0000000000 0.0000000000 0.000000000 0.0000000000 0.5000000000 0.0000000000 0.0000000000 0.5000000000 0.5000000000"
    band_labels: "$\\Gamma$ Z D"
    eigenvectors: ".TRUE."
    band_connection: ".TRUE."
    force_constants: "WRITE"

physical_unit:
  atomic_mass: "AMU"
  length: "au"
  force_constants: "Ry/au^2"

space_group:
  type: "Fd-3m"
  number: 227
  Hall_symbol: "F 4d 2 3 -1d"

supercell_matrix:
- [   1,   0,   0 ]
- [   0,   1,   0 ]
- [   0,   0,   1 ]

primitive_cell:
  lattice:
  - [     0.000000000000000,     7.819972663117250,     7.819972663117250 ] # a
  - [     7.819972663117250,     0.000000000000000,     7.819972663117250 ] # b
  - [     7.819972663117250,     7.819972663117250,     0.000000000000000 ] # c
  points:
  - symbol: Fe1 # 1
    coordinates: [  0.750000000000000,  0.750000000000000,  0.750000000000000 ]
    mass: 55.845000
  - symbol: Fe1 # 2
    coordinates: [  0.500000000000000,  0.500000000000000,  0.500000000000000 ]
    mass: 55.845000
  - symbol: Fe2 # 3
    coordinates: [  0.125000000000000,  0.125000000000000,  0.125000000000000 ]
    mass: 55.845000
  - symbol: Fe2 # 4
    coordinates: [  0.125000000000000,  0.125000000000000,  0.625000000000000 ]
    mass: 55.845000
  - symbol: Fe2 # 5
    coordinates: [  0.125000000000000,  0.625000000000000,  0.125000000000000 ]
    mass: 55.845000
  - symbol: Fe2 # 6
    coordinates: [  0.625000000000000,  0.125000000000000,  0.125000000000000 ]
    mass: 55.845000
  - symbol: O  # 7
    coordinates: [  0.879436953400000,  0.879436953400000,  0.879436953400000 ]
    mass: 15.999400
  - symbol: O  # 8
    coordinates: [  0.370563046600000,  0.370563046600000,  0.370563046600000 ]
    mass: 15.999400
  - symbol: O  # 9
    coordinates: [  0.879436953400000,  0.879436953400000,  0.361689139900000 ]
    mass: 15.999400
  - symbol: O  # 10
    coordinates: [  0.370563046600000,  0.370563046600000,  0.888310860100000 ]
    mass: 15.999400
  - symbol: O  # 11
    coordinates: [  0.879436953400000,  0.361689139900000,  0.879436953400000 ]
    mass: 15.999400
  - symbol: O  # 12
    coordinates: [  0.370563046600000,  0.888310860100000,  0.370563046600000 ]
    mass: 15.999400
  - symbol: O  # 13
    coordinates: [  0.361689139900000,  0.879436953400000,  0.879436953400000 ]
    mass: 15.999400
  - symbol: O  # 14
    coordinates: [  0.888310860100000,  0.370563046600000,  0.370563046600000 ]
    mass: 15.999400
  reciprocal_lattice: # without 2pi
  - [    -0.063938842441002,     0.063938842441002,     0.063938842441002 ] # a*
  - [     0.063938842441002,    -0.063938842441002,     0.063938842441002 ] # b*
  - [     0.063938842441002,     0.063938842441002,    -0.063938842441002 ] # c*

unit_cell:
  lattice:
  - [     0.000000000000000,     7.819972663117250,     7.819972663117250 ] # a
  - [     7.819972663117250,     0.000000000000000,     7.819972663117250 ] # b
  - [     7.819972663117250,     7.819972663117250,     0.000000000000000 ] # c
  points:
  - symbol: Fe1 # 1
    coordinates: [  0.750000000000000,  0.750000000000000,  0.750000000000000 ]
    mass: 55.845000
    reduced_to: 1
  - symbol: Fe1 # 2
    coordinates: [  0.500000000000000,  0.500000000000000,  0.500000000000000 ]
    mass: 55.845000
    reduced_to: 2
  - symbol: Fe2 # 3
    coordinates: [  0.125000000000000,  0.125000000000000,  0.125000000000000 ]
    mass: 55.845000
    reduced_to: 3
  - symbol: Fe2 # 4
    coordinates: [  0.125000000000000,  0.125000000000000,  0.625000000000000 ]
    mass: 55.845000
    reduced_to: 4
  - symbol: Fe2 # 5
    coordinates: [  0.125000000000000,  0.625000000000000,  0.125000000000000 ]
    mass: 55.845000
    reduced_to: 5
  - symbol: Fe2 # 6
    coordinates: [  0.625000000000000,  0.125000000000000,  0.125000000000000 ]
    mass: 55.845000
    reduced_to: 6
  - symbol: O  # 7
    coordinates: [  0.879436953400000,  0.879436953400000,  0.879436953400000 ]
    mass: 15.999400
    reduced_to: 7
  - symbol: O  # 8
    coordinates: [  0.370563046600000,  0.370563046600000,  0.370563046600000 ]
    mass: 15.999400
    reduced_to: 8
  - symbol: O  # 9
    coordinates: [  0.879436953400000,  0.879436953400000,  0.361689139900000 ]
    mass: 15.999400
    reduced_to: 9
  - symbol: O  # 10
    coordinates: [  0.370563046600000,  0.370563046600000,  0.888310860100000 ]
    mass: 15.999400
    reduced_to: 10
  - symbol: O  # 11
    coordinates: [  0.879436953400000,  0.361689139900000,  0.879436953400000 ]
    mass: 15.999400
    reduced_to: 11
  - symbol: O  # 12
    coordinates: [  0.370563046600000,  0.888310860100000,  0.370563046600000 ]
    mass: 15.999400
    reduced_to: 12
  - symbol: O  # 13
    coordinates: [  0.361689139900000,  0.879436953400000,  0.879436953400000 ]
    mass: 15.999400
    reduced_to: 13
  - symbol: O  # 14
    coordinates: [  0.888310860100000,  0.370563046600000,  0.370563046600000 ]
    mass: 15.999400
    reduced_to: 14

supercell:
  lattice:
  - [     0.000000000000000,     7.819972663117250,     7.819972663117250 ] # a
  - [     7.819972663117250,     0.000000000000000,     7.819972663117250 ] # b
  - [     7.819972663117250,     7.819972663117250,     0.000000000000000 ] # c
  points:
  - symbol: Fe1 # 1
    coordinates: [  0.750000000000000,  0.750000000000000,  0.750000000000000 ]
    mass: 55.845000
    reduced_to: 1
  - symbol: Fe1 # 2
    coordinates: [  0.500000000000000,  0.500000000000000,  0.500000000000000 ]
    mass: 55.845000
    reduced_to: 2
  - symbol: Fe2 # 3
    coordinates: [  0.125000000000000,  0.125000000000000,  0.125000000000000 ]
    mass: 55.845000
    reduced_to: 3
  - symbol: Fe2 # 4
    coordinates: [  0.125000000000000,  0.125000000000000,  0.625000000000000 ]
    mass: 55.845000
    reduced_to: 4
  - symbol: Fe2 # 5
    coordinates: [  0.125000000000000,  0.625000000000000,  0.125000000000000 ]
    mass: 55.845000
    reduced_to: 5
  - symbol: Fe2 # 6
    coordinates: [  0.625000000000000,  0.125000000000000,  0.125000000000000 ]
    mass: 55.845000
    reduced_to: 6
  - symbol: O  # 7
    coordinates: [  0.879436953400000,  0.879436953400000,  0.879436953400000 ]
    mass: 15.999400
    reduced_to: 7
  - symbol: O  # 8
    coordinates: [  0.370563046600000,  0.370563046600000,  0.370563046600000 ]
    mass: 15.999400
    reduced_to: 8
  - symbol: O  # 9
    coordinates: [  0.879436953400000,  0.879436953400000,  0.361689139900000 ]
    mass: 15.999400
    reduced_to: 9
  - symbol: O  # 10
    coordinates: [  0.370563046600000,  0.370563046600000,  0.888310860100000 ]
    mass: 15.999400
    reduced_to: 10
  - symbol: O  # 11
    coordinates: [  0.879436953400000,  0.361689139900000,  0.879436953400000 ]
    mass: 15.999400
    reduced_to: 11
  - symbol: O  # 12
    coordinates: [  0.370563046600000,  0.888310860100000,  0.370563046600000 ]
    mass: 15.999400
    reduced_to: 12
  - symbol: O  # 13
    coordinates: [  0.361689139900000,  0.879436953400000,  0.879436953400000 ]
    mass: 15.999400
    reduced_to: 13
  - symbol: O  # 14
    coordinates: [  0.888310860100000,  0.370563046600000,  0.370563046600000 ]
    mass: 15.999400
    reduced_to: 14
