
     Program PWSCF v.7.2 starts on 10Mar2025 at 10:57:12 

     This program is part of the open-source Quantum ESPRESSO suite
     for quantum simulation of materials; please cite
         "P. Giannozzi et al., J. Phys.:Condens. Matter 21 395502 (2009);
         "P. Giannozzi et al., J. Phys.:Condens. Matter 29 465901 (2017);
         "P. Giannozzi et al., J. Chem. Phys. 152 154105 (2020);
          URL http://www.quantum-espresso.org", 
     in publications or presentations arising from this work. More details at
     http://www.quantum-espresso.org/quote

     Parallel version (MPI & OpenMP), running on     128 processor cores
     Number of MPI processes:                32
     Threads/MPI process:                     4

     MPI processes distributed on     1 nodes
     238529 MiB available memory on the printing compute node when the environment starts

     Reading input from pw.in

     Current dimensions of program PWSCF are:
     Max number of different atomic species (ntypx) = 10
     Max number of k-points (npk) =  40000
     Max angular momentum in pseudopotentials (lmaxx) =  4
     file Fe.pbesol-spn-kjpaw_psl.0.2.1.UPF: wavefunction(s)  3D renormalized
     file Fe.pbesol-spn-kjpaw_psl.0.2.1.UPF: wavefunction(s)  3D renormalized
     file O.pbesol-n-kjpaw_psl.0.1.UPF: wavefunction(s)  2P renormalized
     Message from routine setup:
     using ibrav=0 with symmetry is DISCOURAGED, use correct ibrav instead

     K-points division:     npool     =       4
     R & G space division:  proc/nbgrp/npool/nimage =       8
     Subspace diagonalization in iterative solution of the eigenvalue problem:
     a serial algorithm will be used


     Parallelization info
     --------------------
     sticks:   dense  smooth     PW     G-vecs:    dense   smooth      PW
     Min        1170     389    107                74847    14416    2107
     Max        1171     390    108                74852    14419    2110
     Sum        9367    3115    859               598811   115339   16865

     Using Slab Decomposition



     bravais-lattice index     =            0
     lattice parameter (alat)  =      11.2204  a.u.
     unit-cell volume          =     998.8703 (a.u.)^3
     number of atoms/cell      =           14
     number of atomic types    =            3
     number of electrons       =       144.00
     number of Kohn-Sham states=           86
     kinetic-energy cutoff     =      90.0000  Ry
     charge density cutoff     =    1080.0000  Ry
     scf convergence threshold =      2.8E-09
     mixing beta               =       0.4000
     number of iterations used =            8  plain     mixing
     energy convergence thresh.=      1.4E-04
     force convergence thresh. =      1.0E-04
     press convergence thresh. =      5.0E-01
     Exchange-correlation= SLA  PW   PSX  PSC
                           (   1   4  10   8   0   0   0)
     nstep                     =         1000


     celldm(1)=  11.220392  celldm(2)=   0.000000  celldm(3)=   0.000000
     celldm(4)=   0.000000  celldm(5)=   0.000000  celldm(6)=   0.000000

     crystal axes: (cart. coord. in units of alat)
               a(1) = (   0.000000   0.707107   0.707107 )  
               a(2) = (   0.707107   0.000000   0.707107 )  
               a(3) = (   0.707107   0.707107   0.000000 )  

     reciprocal axes: (cart. coord. in units 2 pi/alat)
               b(1) = ( -0.707107  0.707107  0.707107 )  
               b(2) = (  0.707107 -0.707107  0.707107 )  
               b(3) = (  0.707107  0.707107 -0.707107 )  


     PseudoPot. # 1 for Fe read from file:
     ./pseudo/Fe.pbesol-spn-kjpaw_psl.0.2.1.UPF
     MD5 check sum: 4d7ec5aa2156491519a4322664fbbf52
     Pseudo is Projector augmented-wave + core cor, Zval = 16.0
     Generated using "atomic" code by A. Dal Corso  v.6.0 svn rev. 13079
     Shape of augmentation charge: PSQ
     Using radial grid of 1191 points,  6 beta functions with: 
                l(1) =   0
                l(2) =   0
                l(3) =   1
                l(4) =   1
                l(5) =   2
                l(6) =   2
     Q(r) pseudized with 0 coefficients 


     PseudoPot. # 2 for Fe read from file:
     ./pseudo/Fe.pbesol-spn-kjpaw_psl.0.2.1.UPF
     MD5 check sum: 4d7ec5aa2156491519a4322664fbbf52
     Pseudo is Projector augmented-wave + core cor, Zval = 16.0
     Generated using "atomic" code by A. Dal Corso  v.6.0 svn rev. 13079
     Shape of augmentation charge: PSQ
     Using radial grid of 1191 points,  6 beta functions with: 
                l(1) =   0
                l(2) =   0
                l(3) =   1
                l(4) =   1
                l(5) =   2
                l(6) =   2
     Q(r) pseudized with 0 coefficients 


     PseudoPot. # 3 for O  read from file:
     ./pseudo/O.pbesol-n-kjpaw_psl.0.1.UPF
     MD5 check sum: 81d73d1479e654e5638b0319f0d6c2c7
     Pseudo is Projector augmented-wave + core cor, Zval =  6.0
     Generated using "atomic" code by A. Dal Corso  v.6.0 svn rev. 13079
     Shape of augmentation charge: BESSEL
     Using radial grid of 1095 points,  4 beta functions with: 
                l(1) =   0
                l(2) =   0
                l(3) =   1
                l(4) =   1
     Q(r) pseudized with 0 coefficients 


     atomic species   valence    mass     pseudopotential
        Fe1           16.00    55.84500     Fe( 1.00)
        Fe2           16.00    55.84500     Fe( 1.00)
        O              6.00    15.99940     O ( 1.00)

     Starting magnetic structure 
     atomic species   magnetization
        Fe1         -1.000
        Fe2          1.000
        O            0.000

     48 Sym. Ops., with inversion, found (24 have fractional translation)


                                    s                        frac. trans.

      isym =  1     identity                                     

 cryst.   s( 1) = (     1          0          0      )
                  (     0          1          0      )
                  (     0          0          1      )

 cart.    s( 1) = (  1.0000000 -0.0000000  0.0000000 )
                  ( -0.0000000  1.0000000  0.0000000 )
                  ( -0.0000000  0.0000000  1.0000000 )


      isym =  2     180 deg rotation - cart. axis [0,0,1]        

 cryst.   s( 2) = (     0          1         -1      )
                  (     1          0         -1      )
                  (     0          0         -1      )

 cart.    s( 2) = ( -1.0000000  0.0000000  0.0000000 )
                  (  0.0000000 -1.0000000  0.0000000 )
                  (  0.0000000 -0.0000000  1.0000000 )


      isym =  3     180 deg rotation - cart. axis [0,1,0]        

 cryst.   s( 3) = (     0         -1          1      )
                  (     0         -1          0      )
                  (     1         -1          0      )

 cart.    s( 3) = ( -1.0000000 -0.0000000 -0.0000000 )
                  (  0.0000000  1.0000000 -0.0000000 )
                  (  0.0000000  0.0000000 -1.0000000 )


      isym =  4     180 deg rotation - cart. axis [1,0,0]        

 cryst.   s( 4) = (    -1          0          0      )
                  (    -1          0          1      )
                  (    -1          1          0      )

 cart.    s( 4) = (  1.0000000  0.0000000 -0.0000000 )
                  ( -0.0000000 -1.0000000 -0.0000000 )
                  ( -0.0000000 -0.0000000 -1.0000000 )


      isym =  5     180 deg rotation - cart. axis [1,1,0]        

 cryst.   s( 5) = (    -1          0          1      )    f =( -0.2500000 )
                  (     0         -1          1      )       ( -0.2500000 )
                  (     0          0          1      )       ( -0.2500000 )

 cart.    s( 5) = ( -0.0000000  1.0000000 -0.0000000 )    f =( -0.3535534 )
                  (  1.0000000 -0.0000000 -0.0000000 )       ( -0.3535534 )
                  (  0.0000000 -0.0000000 -1.0000000 )       ( -0.3535534 )


      isym =  6     180 deg rotation - cart. axis [1,-1,0]       

 cryst.   s( 6) = (     0         -1          0      )    f =( -0.2500000 )
                  (    -1          0          0      )       ( -0.2500000 )
                  (     0          0         -1      )       ( -0.2500000 )

 cart.    s( 6) = (  0.0000000 -1.0000000 -0.0000000 )    f =( -0.3535534 )
                  ( -1.0000000  0.0000000 -0.0000000 )       ( -0.3535534 )
                  ( -0.0000000  0.0000000 -1.0000000 )       ( -0.3535534 )


      isym =  7      90 deg rotation - cart. axis [0,0,-1]       

 cryst.   s( 7) = (     0          1          0      )    f =( -0.2500000 )
                  (     0          1         -1      )       ( -0.2500000 )
                  (    -1          1          0      )       ( -0.2500000 )

 cart.    s( 7) = (  0.0000000  1.0000000  0.0000000 )    f =( -0.3535534 )
                  ( -1.0000000 -0.0000000  0.0000000 )       ( -0.3535534 )
                  ( -0.0000000 -0.0000000  1.0000000 )       ( -0.3535534 )


      isym =  8      90 deg rotation - cart. axis [0,0,1]        

 cryst.   s( 8) = (     1          0         -1      )    f =( -0.2500000 )
                  (     1          0          0      )       ( -0.2500000 )
                  (     1         -1          0      )       ( -0.2500000 )

 cart.    s( 8) = ( -0.0000000 -1.0000000  0.0000000 )    f =( -0.3535534 )
                  (  1.0000000  0.0000000  0.0000000 )       ( -0.3535534 )
                  (  0.0000000  0.0000000  1.0000000 )       ( -0.3535534 )


      isym =  9     180 deg rotation - cart. axis [1,0,1]        

 cryst.   s( 9) = (    -1          1          0      )    f =( -0.2500000 )
                  (     0          1          0      )       ( -0.2500000 )
                  (     0          1         -1      )       ( -0.2500000 )

 cart.    s( 9) = (  0.0000000  0.0000000  1.0000000 )    f =( -0.3535534 )
                  (  0.0000000 -1.0000000 -0.0000000 )       ( -0.3535534 )
                  (  1.0000000 -0.0000000 -0.0000000 )       ( -0.3535534 )


      isym = 10     180 deg rotation - cart. axis [-1,0,1]       

 cryst.   s(10) = (     0          0         -1      )    f =( -0.2500000 )
                  (     0         -1          0      )       ( -0.2500000 )
                  (    -1          0          0      )       ( -0.2500000 )

 cart.    s(10) = ( -0.0000000  0.0000000 -1.0000000 )    f =( -0.3535534 )
                  ( -0.0000000 -1.0000000  0.0000000 )       ( -0.3535534 )
                  ( -1.0000000 -0.0000000  0.0000000 )       ( -0.3535534 )


      isym = 11      90 deg rotation - cart. axis [0,1,0]        

 cryst.   s(11) = (     0          0          1      )    f =( -0.2500000 )
                  (    -1          0          1      )       ( -0.2500000 )
                  (     0         -1          1      )       ( -0.2500000 )

 cart.    s(11) = ( -0.0000000 -0.0000000  1.0000000 )    f =( -0.3535534 )
                  ( -0.0000000  1.0000000 -0.0000000 )       ( -0.3535534 )
                  ( -1.0000000  0.0000000 -0.0000000 )       ( -0.3535534 )


      isym = 12      90 deg rotation - cart. axis [0,-1,0]       

 cryst.   s(12) = (     1         -1          0      )    f =( -0.2500000 )
                  (     1          0         -1      )       ( -0.2500000 )
                  (     1          0          0      )       ( -0.2500000 )

 cart.    s(12) = (  0.0000000 -0.0000000 -1.0000000 )    f =( -0.3535534 )
                  (  0.0000000  1.0000000  0.0000000 )       ( -0.3535534 )
                  (  1.0000000  0.0000000  0.0000000 )       ( -0.3535534 )


      isym = 13     180 deg rotation - cart. axis [0,1,1]        

 cryst.   s(13) = (     1          0          0      )    f =( -0.2500000 )
                  (     1         -1          0      )       ( -0.2500000 )
                  (     1          0         -1      )       ( -0.2500000 )

 cart.    s(13) = ( -1.0000000  0.0000000 -0.0000000 )    f =( -0.3535534 )
                  (  0.0000000  0.0000000  1.0000000 )       ( -0.3535534 )
                  (  0.0000000  1.0000000  0.0000000 )       ( -0.3535534 )


      isym = 14     180 deg rotation - cart. axis [0,1,-1]       

 cryst.   s(14) = (    -1          0          0      )    f =( -0.2500000 )
                  (     0          0         -1      )       ( -0.2500000 )
                  (     0         -1          0      )       ( -0.2500000 )

 cart.    s(14) = ( -1.0000000 -0.0000000  0.0000000 )    f =( -0.3535534 )
                  (  0.0000000 -0.0000000 -1.0000000 )       ( -0.3535534 )
                  (  0.0000000 -1.0000000 -0.0000000 )       ( -0.3535534 )


      isym = 15      90 deg rotation - cart. axis [-1,0,0]       

 cryst.   s(15) = (     0         -1          1      )    f =( -0.2500000 )
                  (     0          0          1      )       ( -0.2500000 )
                  (    -1          0          1      )       ( -0.2500000 )

 cart.    s(15) = (  1.0000000 -0.0000000 -0.0000000 )    f =( -0.3535534 )
                  ( -0.0000000 -0.0000000  1.0000000 )       ( -0.3535534 )
                  ( -0.0000000 -1.0000000  0.0000000 )       ( -0.3535534 )


      isym = 16      90 deg rotation - cart. axis [1,0,0]        

 cryst.   s(16) = (     0          1         -1      )    f =( -0.2500000 )
                  (    -1          1          0      )       ( -0.2500000 )
                  (     0          1          0      )       ( -0.2500000 )

 cart.    s(16) = (  1.0000000  0.0000000  0.0000000 )    f =( -0.3535534 )
                  ( -0.0000000  0.0000000 -1.0000000 )       ( -0.3535534 )
                  ( -0.0000000  1.0000000 -0.0000000 )       ( -0.3535534 )


      isym = 17     120 deg rotation - cart. axis [-1,-1,-1]     

 cryst.   s(17) = (     0          0          1      )
                  (     1          0          0      )
                  (     0          1          0      )

 cart.    s(17) = (  0.0000000  1.0000000 -0.0000000 )
                  (  0.0000000 -0.0000000  1.0000000 )
                  (  1.0000000 -0.0000000  0.0000000 )


      isym = 18     120 deg rotation - cart. axis [-1,1,1]       

 cryst.   s(18) = (     1         -1          0      )
                  (     0         -1          1      )
                  (     0         -1          0      )

 cart.    s(18) = ( -0.0000000 -1.0000000 -0.0000000 )
                  ( -0.0000000  0.0000000  1.0000000 )
                  ( -1.0000000  0.0000000  0.0000000 )


      isym = 19     120 deg rotation - cart. axis [1,1,-1]       

 cryst.   s(19) = (    -1          1          0      )
                  (    -1          0          0      )
                  (    -1          0          1      )

 cart.    s(19) = ( -0.0000000  1.0000000  0.0000000 )
                  ( -0.0000000 -0.0000000 -1.0000000 )
                  ( -1.0000000 -0.0000000 -0.0000000 )


      isym = 20     120 deg rotation - cart. axis [1,-1,1]       

 cryst.   s(20) = (     0          0         -1      )
                  (     0          1         -1      )
                  (     1          0         -1      )

 cart.    s(20) = (  0.0000000 -1.0000000  0.0000000 )
                  (  0.0000000  0.0000000 -1.0000000 )
                  (  1.0000000  0.0000000 -0.0000000 )


      isym = 21     120 deg rotation - cart. axis [1,1,1]        

 cryst.   s(21) = (     0          1          0      )
                  (     0          0          1      )
                  (     1          0          0      )

 cart.    s(21) = ( -0.0000000  0.0000000  1.0000000 )
                  (  1.0000000  0.0000000 -0.0000000 )
                  (  0.0000000  1.0000000 -0.0000000 )


      isym = 22     120 deg rotation - cart. axis [-1,1,-1]      

 cryst.   s(22) = (    -1          0          1      )
                  (    -1          1          0      )
                  (    -1          0          0      )

 cart.    s(22) = (  0.0000000 -0.0000000  1.0000000 )
                  ( -1.0000000 -0.0000000 -0.0000000 )
                  ( -0.0000000 -1.0000000 -0.0000000 )


      isym = 23     120 deg rotation - cart. axis [1,-1,-1]      

 cryst.   s(23) = (     1          0         -1      )
                  (     0          0         -1      )
                  (     0          1         -1      )

 cart.    s(23) = (  0.0000000  0.0000000 -1.0000000 )
                  ( -1.0000000  0.0000000  0.0000000 )
                  ( -0.0000000  1.0000000  0.0000000 )


      isym = 24     120 deg rotation - cart. axis [-1,-1,1]      

 cryst.   s(24) = (     0         -1          0      )
                  (     1         -1          0      )
                  (     0         -1          1      )

 cart.    s(24) = ( -0.0000000 -0.0000000 -1.0000000 )
                  (  1.0000000 -0.0000000  0.0000000 )
                  (  0.0000000 -1.0000000  0.0000000 )


      isym = 25     inversion                                    

 cryst.   s(25) = (    -1          0          0      )    f =( -0.2500000 )
                  (     0         -1          0      )       ( -0.2500000 )
                  (     0          0         -1      )       ( -0.2500000 )

 cart.    s(25) = ( -1.0000000  0.0000000 -0.0000000 )    f =( -0.3535534 )
                  (  0.0000000 -1.0000000 -0.0000000 )       ( -0.3535534 )
                  (  0.0000000 -0.0000000 -1.0000000 )       ( -0.3535534 )


      isym = 26     inv. 180 deg rotation - cart. axis [0,0,1]   

 cryst.   s(26) = (     0         -1          1      )    f =( -0.2500000 )
                  (    -1          0          1      )       ( -0.2500000 )
                  (     0          0          1      )       ( -0.2500000 )

 cart.    s(26) = (  1.0000000 -0.0000000 -0.0000000 )    f =( -0.3535534 )
                  ( -0.0000000  1.0000000 -0.0000000 )       ( -0.3535534 )
                  ( -0.0000000  0.0000000 -1.0000000 )       ( -0.3535534 )


      isym = 27     inv. 180 deg rotation - cart. axis [0,1,0]   

 cryst.   s(27) = (     0          1         -1      )    f =( -0.2500000 )
                  (     0          1          0      )       ( -0.2500000 )
                  (    -1          1          0      )       ( -0.2500000 )

 cart.    s(27) = (  1.0000000  0.0000000  0.0000000 )    f =( -0.3535534 )
                  ( -0.0000000 -1.0000000  0.0000000 )       ( -0.3535534 )
                  ( -0.0000000 -0.0000000  1.0000000 )       ( -0.3535534 )


      isym = 28     inv. 180 deg rotation - cart. axis [1,0,0]   

 cryst.   s(28) = (     1          0          0      )    f =( -0.2500000 )
                  (     1          0         -1      )       ( -0.2500000 )
                  (     1         -1          0      )       ( -0.2500000 )

 cart.    s(28) = ( -1.0000000 -0.0000000  0.0000000 )    f =( -0.3535534 )
                  (  0.0000000  1.0000000  0.0000000 )       ( -0.3535534 )
                  (  0.0000000  0.0000000  1.0000000 )       ( -0.3535534 )


      isym = 29     inv. 180 deg rotation - cart. axis [1,1,0]   

 cryst.   s(29) = (     1          0         -1      )
                  (     0          1         -1      )
                  (     0          0         -1      )

 cart.    s(29) = (  0.0000000 -1.0000000  0.0000000 )
                  ( -1.0000000  0.0000000  0.0000000 )
                  ( -0.0000000  0.0000000  1.0000000 )


      isym = 30     inv. 180 deg rotation - cart. axis [1,-1,0]  

 cryst.   s(30) = (     0          1          0      )
                  (     1          0          0      )
                  (     0          0          1      )

 cart.    s(30) = ( -0.0000000  1.0000000  0.0000000 )
                  (  1.0000000 -0.0000000  0.0000000 )
                  (  0.0000000 -0.0000000  1.0000000 )


      isym = 31     inv.  90 deg rotation - cart. axis [0,0,-1]  

 cryst.   s(31) = (     0         -1          0      )
                  (     0         -1          1      )
                  (     1         -1          0      )

 cart.    s(31) = ( -0.0000000 -1.0000000 -0.0000000 )
                  (  1.0000000  0.0000000 -0.0000000 )
                  (  0.0000000  0.0000000 -1.0000000 )


      isym = 32     inv.  90 deg rotation - cart. axis [0,0,1]   

 cryst.   s(32) = (    -1          0          1      )
                  (    -1          0          0      )
                  (    -1          1          0      )

 cart.    s(32) = (  0.0000000  1.0000000 -0.0000000 )
                  ( -1.0000000 -0.0000000 -0.0000000 )
                  ( -0.0000000 -0.0000000 -1.0000000 )


      isym = 33     inv. 180 deg rotation - cart. axis [1,0,1]   

 cryst.   s(33) = (     1         -1          0      )
                  (     0         -1          0      )
                  (     0         -1          1      )

 cart.    s(33) = ( -0.0000000 -0.0000000 -1.0000000 )
                  ( -0.0000000  1.0000000  0.0000000 )
                  ( -1.0000000  0.0000000  0.0000000 )


      isym = 34     inv. 180 deg rotation - cart. axis [-1,0,1]  

 cryst.   s(34) = (     0          0          1      )
                  (     0          1          0      )
                  (     1          0          0      )

 cart.    s(34) = (  0.0000000 -0.0000000  1.0000000 )
                  (  0.0000000  1.0000000 -0.0000000 )
                  (  1.0000000  0.0000000 -0.0000000 )


      isym = 35     inv.  90 deg rotation - cart. axis [0,1,0]   

 cryst.   s(35) = (     0          0         -1      )
                  (     1          0         -1      )
                  (     0          1         -1      )

 cart.    s(35) = (  0.0000000  0.0000000 -1.0000000 )
                  (  0.0000000 -1.0000000  0.0000000 )
                  (  1.0000000 -0.0000000  0.0000000 )


      isym = 36     inv.  90 deg rotation - cart. axis [0,-1,0]  

 cryst.   s(36) = (    -1          1          0      )
                  (    -1          0          1      )
                  (    -1          0          0      )

 cart.    s(36) = ( -0.0000000  0.0000000  1.0000000 )
                  ( -0.0000000 -1.0000000 -0.0000000 )
                  ( -1.0000000 -0.0000000 -0.0000000 )


      isym = 37     inv. 180 deg rotation - cart. axis [0,1,1]   

 cryst.   s(37) = (    -1          0          0      )
                  (    -1          1          0      )
                  (    -1          0          1      )

 cart.    s(37) = (  1.0000000 -0.0000000  0.0000000 )
                  ( -0.0000000 -0.0000000 -1.0000000 )
                  ( -0.0000000 -1.0000000 -0.0000000 )


      isym = 38     inv. 180 deg rotation - cart. axis [0,1,-1]  

 cryst.   s(38) = (     1          0          0      )
                  (     0          0          1      )
                  (     0          1          0      )

 cart.    s(38) = (  1.0000000  0.0000000 -0.0000000 )
                  ( -0.0000000  0.0000000  1.0000000 )
                  ( -0.0000000  1.0000000  0.0000000 )


      isym = 39     inv.  90 deg rotation - cart. axis [-1,0,0]  

 cryst.   s(39) = (     0          1         -1      )
                  (     0          0         -1      )
                  (     1          0         -1      )

 cart.    s(39) = ( -1.0000000  0.0000000  0.0000000 )
                  (  0.0000000  0.0000000 -1.0000000 )
                  (  0.0000000  1.0000000 -0.0000000 )


      isym = 40     inv.  90 deg rotation - cart. axis [1,0,0]   

 cryst.   s(40) = (     0         -1          1      )
                  (     1         -1          0      )
                  (     0         -1          0      )

 cart.    s(40) = ( -1.0000000 -0.0000000 -0.0000000 )
                  (  0.0000000 -0.0000000  1.0000000 )
                  (  0.0000000 -1.0000000  0.0000000 )


      isym = 41     inv. 120 deg rotation - cart. axis [-1,-1,-1]

 cryst.   s(41) = (     0          0         -1      )    f =( -0.2500000 )
                  (    -1          0          0      )       ( -0.2500000 )
                  (     0         -1          0      )       ( -0.2500000 )

 cart.    s(41) = ( -0.0000000 -1.0000000  0.0000000 )    f =( -0.3535534 )
                  ( -0.0000000  0.0000000 -1.0000000 )       ( -0.3535534 )
                  ( -1.0000000  0.0000000 -0.0000000 )       ( -0.3535534 )


      isym = 42     inv. 120 deg rotation - cart. axis [-1,1,1]  

 cryst.   s(42) = (    -1          1          0      )    f =( -0.2500000 )
                  (     0          1         -1      )       ( -0.2500000 )
                  (     0          1          0      )       ( -0.2500000 )

 cart.    s(42) = (  0.0000000  1.0000000  0.0000000 )    f =( -0.3535534 )
                  (  0.0000000 -0.0000000 -1.0000000 )       ( -0.3535534 )
                  (  1.0000000 -0.0000000 -0.0000000 )       ( -0.3535534 )


      isym = 43     inv. 120 deg rotation - cart. axis [1,1,-1]  

 cryst.   s(43) = (     1         -1          0      )    f =( -0.2500000 )
                  (     1          0          0      )       ( -0.2500000 )
                  (     1          0         -1      )       ( -0.2500000 )

 cart.    s(43) = (  0.0000000 -1.0000000 -0.0000000 )    f =( -0.3535534 )
                  (  0.0000000  0.0000000  1.0000000 )       ( -0.3535534 )
                  (  1.0000000  0.0000000  0.0000000 )       ( -0.3535534 )


      isym = 44     inv. 120 deg rotation - cart. axis [1,-1,1]  

 cryst.   s(44) = (     0          0          1      )    f =( -0.2500000 )
                  (     0         -1          1      )       ( -0.2500000 )
                  (    -1          0          1      )       ( -0.2500000 )

 cart.    s(44) = ( -0.0000000  1.0000000 -0.0000000 )    f =( -0.3535534 )
                  ( -0.0000000 -0.0000000  1.0000000 )       ( -0.3535534 )
                  ( -1.0000000 -0.0000000  0.0000000 )       ( -0.3535534 )


      isym = 45     inv. 120 deg rotation - cart. axis [1,1,1]   

 cryst.   s(45) = (     0         -1          0      )    f =( -0.2500000 )
                  (     0          0         -1      )       ( -0.2500000 )
                  (    -1          0          0      )       ( -0.2500000 )

 cart.    s(45) = (  0.0000000 -0.0000000 -1.0000000 )    f =( -0.3535534 )
                  ( -1.0000000 -0.0000000  0.0000000 )       ( -0.3535534 )
                  ( -0.0000000 -1.0000000  0.0000000 )       ( -0.3535534 )


      isym = 46     inv. 120 deg rotation - cart. axis [-1,1,-1] 

 cryst.   s(46) = (     1          0         -1      )    f =( -0.2500000 )
                  (     1         -1          0      )       ( -0.2500000 )
                  (     1          0          0      )       ( -0.2500000 )

 cart.    s(46) = ( -0.0000000  0.0000000 -1.0000000 )    f =( -0.3535534 )
                  (  1.0000000  0.0000000  0.0000000 )       ( -0.3535534 )
                  (  0.0000000  1.0000000  0.0000000 )       ( -0.3535534 )


      isym = 47     inv. 120 deg rotation - cart. axis [1,-1,-1] 

 cryst.   s(47) = (    -1          0          1      )    f =( -0.2500000 )
                  (     0          0          1      )       ( -0.2500000 )
                  (     0         -1          1      )       ( -0.2500000 )

 cart.    s(47) = ( -0.0000000 -0.0000000  1.0000000 )    f =( -0.3535534 )
                  (  1.0000000 -0.0000000 -0.0000000 )       ( -0.3535534 )
                  (  0.0000000 -1.0000000 -0.0000000 )       ( -0.3535534 )


      isym = 48     inv. 120 deg rotation - cart. axis [-1,-1,1] 

 cryst.   s(48) = (     0          1          0      )    f =( -0.2500000 )
                  (    -1          1          0      )       ( -0.2500000 )
                  (     0          1         -1      )       ( -0.2500000 )

 cart.    s(48) = (  0.0000000  0.0000000  1.0000000 )    f =( -0.3535534 )
                  ( -1.0000000  0.0000000 -0.0000000 )       ( -0.3535534 )
                  ( -0.0000000  1.0000000 -0.0000000 )       ( -0.3535534 )


   Cartesian axes

     site n.     atom                  positions (alat units)
         1           Fe1 tau(   1) = (   1.0606602   1.0606602   1.0606602  )
         2           Fe1 tau(   2) = (   0.7071068   0.7071068   0.7071068  )
         3           Fe2 tau(   3) = (   0.1767767   0.1767767   0.1767767  )
         4           Fe2 tau(   4) = (   0.5303301   0.5303301   0.1767767  )
         5           Fe2 tau(   5) = (   0.5303301   0.1767767   0.5303301  )
         6           Fe2 tau(   6) = (   0.1767767   0.5303301   0.5303301  )
         7           O   tau(   7) = (   1.2510699   1.2510699   1.2510699  )
         8           O   tau(   8) = (   0.5166971   0.5166971   0.5166971  )
         9           O   tau(   9) = (   0.8702504   0.8702504   1.2510699  )
        10           O   tau(  10) = (   0.8975165   0.8975165   0.5166971  )
        11           O   tau(  11) = (   0.8702504   1.2510699   0.8702504  )
        12           O   tau(  12) = (   0.8975165   0.5166971   0.8975165  )
        13           O   tau(  13) = (   1.2510699   0.8702504   0.8702504  )
        14           O   tau(  14) = (   0.5166971   0.8975165   0.8975165  )

   Crystallographic axes

     site n.     atom                  positions (cryst. coord.)
         1           Fe1 tau(   1) = (  0.7500000  0.7500000  0.7500000  )
         2           Fe1 tau(   2) = (  0.5000000  0.5000000  0.5000000  )
         3           Fe2 tau(   3) = (  0.1250000  0.1250000  0.1250000  )
         4           Fe2 tau(   4) = (  0.1250000  0.1250000  0.6250000  )
         5           Fe2 tau(   5) = (  0.1250000  0.6250000  0.1250000  )
         6           Fe2 tau(   6) = (  0.6250000  0.1250000  0.1250000  )
         7           O   tau(   7) = (  0.8846400  0.8846400  0.8846400  )
         8           O   tau(   8) = (  0.3653600  0.3653600  0.3653600  )
         9           O   tau(   9) = (  0.8846400  0.8846400  0.3460800  )
        10           O   tau(  10) = (  0.3653600  0.3653600  0.9039200  )
        11           O   tau(  11) = (  0.8846400  0.3460800  0.8846400  )
        12           O   tau(  12) = (  0.3653600  0.9039200  0.3653600  )
        13           O   tau(  13) = (  0.3460800  0.8846400  0.8846400  )
        14           O   tau(  14) = (  0.9039200  0.3653600  0.3653600  )

     number of k points=    35  Marzari-Vanderbilt smearing, width (Ry)=  0.0200
                       cart. coord. in units 2pi/alat
        k(    1) = (   0.0000000   0.0000000   0.0000000), wk =   0.0013717
        k(    2) = (   0.0785674   0.0785674  -0.0785674), wk =   0.0109739
        k(    3) = (   0.1571348   0.1571348  -0.1571348), wk =   0.0109739
        k(    4) = (   0.2357023   0.2357023  -0.2357023), wk =   0.0109739
        k(    5) = (   0.3142697   0.3142697  -0.3142697), wk =   0.0109739
        k(    6) = (   0.1571348   0.0000000  -0.0000000), wk =   0.0082305
        k(    7) = (   0.2357023   0.0785674  -0.0785674), wk =   0.0329218
        k(    8) = (   0.3142697   0.1571348  -0.1571348), wk =   0.0329218
        k(    9) = (   0.3928371   0.2357023  -0.2357023), wk =   0.0329218
        k(   10) = (  -0.2357023  -0.3928371   0.3928371), wk =   0.0329218
        k(   11) = (  -0.1571348  -0.3142697   0.3142697), wk =   0.0329218
        k(   12) = (  -0.0785674  -0.2357023   0.2357023), wk =   0.0329218
        k(   13) = (  -0.0000000  -0.1571348   0.1571348), wk =   0.0164609
        k(   14) = (   0.3142697   0.0000000  -0.0000000), wk =   0.0082305
        k(   15) = (   0.3928371   0.0785674  -0.0785674), wk =   0.0329218
        k(   16) = (   0.4714045   0.1571348  -0.1571348), wk =   0.0329218
        k(   17) = (  -0.1571348  -0.4714045   0.4714045), wk =   0.0329218
        k(   18) = (  -0.0785674  -0.3928371   0.3928371), wk =   0.0329218
        k(   19) = (  -0.0000000  -0.3142697   0.3142697), wk =   0.0164609
        k(   20) = (   0.4714045   0.0000000  -0.0000000), wk =   0.0082305
        k(   21) = (   0.5499719   0.0785674  -0.0785674), wk =   0.0329218
        k(   22) = (  -0.0785674  -0.5499719   0.5499719), wk =   0.0329218
        k(   23) = (  -0.0000000  -0.4714045   0.4714045), wk =   0.0164609
        k(   24) = (   0.6285394   0.0000000  -0.0000000), wk =   0.0082305
        k(   25) = (  -0.0000000  -0.6285394   0.6285394), wk =   0.0164609
        k(   26) = (   0.3142697   0.1571348  -0.0000000), wk =   0.0329218
        k(   27) = (   0.3928371   0.2357023  -0.0785674), wk =   0.0658436
        k(   28) = (  -0.2357023  -0.3928371   0.5499719), wk =   0.0658436
        k(   29) = (   0.4714045   0.1571348  -0.0000000), wk =   0.0329218
        k(   30) = (  -0.1571348  -0.4714045   0.6285394), wk =   0.0658436
        k(   31) = (  -0.0785674  -0.3928371   0.5499719), wk =   0.0658436
        k(   32) = (  -0.0000000  -0.3142697   0.4714045), wk =   0.0329218
        k(   33) = (  -0.0785674  -0.5499719   0.7071068), wk =   0.0329218
        k(   34) = (  -0.0000000  -0.4714045   0.6285394), wk =   0.0329218
        k(   35) = (  -0.0785674  -0.3928371   0.7071068), wk =   0.0329218

                       cryst. coord.
        k(    1) = (   0.0000000   0.0000000   0.0000000), wk =   0.0013717
        k(    2) = (  -0.0000000  -0.0000000   0.1111111), wk =   0.0109739
        k(    3) = (  -0.0000000  -0.0000000   0.2222222), wk =   0.0109739
        k(    4) = (   0.0000000   0.0000000   0.3333333), wk =   0.0109739
        k(    5) = (  -0.0000000  -0.0000000   0.4444444), wk =   0.0109739
        k(    6) = (  -0.0000000   0.1111111   0.1111111), wk =   0.0082305
        k(    7) = (   0.0000000   0.1111111   0.2222222), wk =   0.0329218
        k(    8) = (   0.0000000   0.1111111   0.3333333), wk =   0.0329218
        k(    9) = (   0.0000000   0.1111111   0.4444444), wk =   0.0329218
        k(   10) = (   0.0000000   0.1111111  -0.4444444), wk =   0.0329218
        k(   11) = (  -0.0000000   0.1111111  -0.3333333), wk =   0.0329218
        k(   12) = (  -0.0000000   0.1111111  -0.2222222), wk =   0.0329218
        k(   13) = (   0.0000000   0.1111111  -0.1111111), wk =   0.0164609
        k(   14) = (  -0.0000000   0.2222222   0.2222222), wk =   0.0082305
        k(   15) = (   0.0000000   0.2222222   0.3333333), wk =   0.0329218
        k(   16) = (   0.0000000   0.2222222   0.4444444), wk =   0.0329218
        k(   17) = (  -0.0000000   0.2222222  -0.4444444), wk =   0.0329218
        k(   18) = (   0.0000000   0.2222222  -0.3333333), wk =   0.0329218
        k(   19) = (   0.0000000   0.2222222  -0.2222222), wk =   0.0164609
        k(   20) = (  -0.0000000   0.3333333   0.3333333), wk =   0.0082305
        k(   21) = (   0.0000000   0.3333333   0.4444444), wk =   0.0329218
        k(   22) = (   0.0000000   0.3333333  -0.4444444), wk =   0.0329218
        k(   23) = (   0.0000000   0.3333333  -0.3333333), wk =   0.0164609
        k(   24) = (  -0.0000000   0.4444444   0.4444444), wk =   0.0082305
        k(   25) = (   0.0000000   0.4444444  -0.4444444), wk =   0.0164609
        k(   26) = (   0.1111111   0.2222222   0.3333333), wk =   0.0329218
        k(   27) = (   0.1111111   0.2222222   0.4444444), wk =   0.0658436
        k(   28) = (   0.1111111   0.2222222  -0.4444444), wk =   0.0658436
        k(   29) = (   0.1111111   0.3333333   0.4444444), wk =   0.0329218
        k(   30) = (   0.1111111   0.3333333  -0.4444444), wk =   0.0658436
        k(   31) = (   0.1111111   0.3333333  -0.3333333), wk =   0.0658436
        k(   32) = (   0.1111111   0.3333333  -0.2222222), wk =   0.0329218
        k(   33) = (   0.1111111   0.4444444  -0.4444444), wk =   0.0329218
        k(   34) = (   0.1111111   0.4444444  -0.3333333), wk =   0.0329218
        k(   35) = (   0.2222222   0.4444444  -0.3333333), wk =   0.0329218

     Dense  grid:   598811 G-vectors     FFT dimensions: ( 120, 120, 120)

     Smooth grid:   115339 G-vectors     FFT dimensions: (  72,  72,  72)

     Dynamical RAM for                 wfc:       2.36 MB

     Dynamical RAM for     wfc (w. buffer):      44.88 MB

     Dynamical RAM for           str. fact:       3.43 MB

     Dynamical RAM for           local pot:       0.00 MB

     Dynamical RAM for          nlocal pot:       4.72 MB

     Dynamical RAM for                qrad:      15.81 MB

     Dynamical RAM for          rho,v,vnew:      16.74 MB

     Dynamical RAM for               rhoin:       5.58 MB

     Dynamical RAM for            rho*nmix:      36.55 MB

     Dynamical RAM for           G-vectors:       4.39 MB

     Dynamical RAM for          h,s,v(r/c):       1.35 MB

     Dynamical RAM for          <psi|beta>:       0.23 MB

     Dynamical RAM for                 psi:       4.72 MB

     Dynamical RAM for                hpsi:       4.72 MB

     Dynamical RAM for                spsi:       4.72 MB

     Dynamical RAM for      wfcinit/wfcrot:       6.32 MB

     Dynamical RAM for           addusdens:      57.39 MB

     Dynamical RAM for          addusforce:      60.60 MB

     Dynamical RAM for         addusstress:      58.68 MB

     Estimated static dynamical RAM per process >     110.01 MB

     Estimated max dynamical RAM per process >     207.16 MB

     Estimated total dynamical RAM >       5.62 GB

     Check: negative core charge=   -0.000007
     Generating pointlists ...
     new r_m :   0.1360 (alat units)  1.5264 (a.u.) for type    1
     new r_m :   0.1404 (alat units)  1.5758 (a.u.) for type    2
     new r_m :   0.1360 (alat units)  1.5264 (a.u.) for type    3

     Initial potential from superposition of free atoms

     starting charge     143.9976, renormalised to     144.0000
     Starting wfcs are  110 randomized atomic wfcs
     Checking if some PAW data can be deallocated... 
       PAW data deallocated on   26 nodes for type:  1
       PAW data deallocated on   22 nodes for type:  2
       PAW data deallocated on   16 nodes for type:  3

     total cpu time spent up to now is        5.8 secs

     per-process dynamical memory:   136.5 Mb

     Self-consistent Calculation

     iteration #  1     ecut=    90.00 Ry     beta= 0.40
     Davidson diagonalization with overlap

---- Real-time Memory Report at c_bands before calling an iterative solver
           251 MiB given to the printing process from OS
           135 MiB allocation reported by mallinfo(arena+hblkhd)
        231863 MiB available memory on the node where the printing process lives
------------------
     ethr =  1.00E-02,  avg # of iterations =  3.9

     negative rho (up, down):  5.634E-04 1.100E-03

     total cpu time spent up to now is       11.0 secs

     total energy              =   -2282.00908917 Ry
     estimated scf accuracy    <      26.49231561 Ry

     total magnetization       =     9.56 Bohr mag/cell
     absolute magnetization    =    31.48 Bohr mag/cell

     iteration #  2     ecut=    90.00 Ry     beta= 0.40
     Davidson diagonalization with overlap

---- Real-time Memory Report at c_bands before calling an iterative solver
           316 MiB given to the printing process from OS
           155 MiB allocation reported by mallinfo(arena+hblkhd)
        231275 MiB available memory on the node where the printing process lives
------------------
     ethr =  1.00E-02,  avg # of iterations =  5.1

     negative rho (up, down):  7.596E-04 8.309E-04

     total cpu time spent up to now is       16.3 secs

     total energy              =   -2287.98864549 Ry
     estimated scf accuracy    <      10.19916978 Ry

     total magnetization       =     8.00 Bohr mag/cell
     absolute magnetization    =    26.91 Bohr mag/cell

     iteration #  3     ecut=    90.00 Ry     beta= 0.40
     Davidson diagonalization with overlap

---- Real-time Memory Report at c_bands before calling an iterative solver
           318 MiB given to the printing process from OS
           156 MiB allocation reported by mallinfo(arena+hblkhd)
        231242 MiB available memory on the node where the printing process lives
------------------
     ethr =  7.08E-03,  avg # of iterations =  2.8

     negative rho (up, down):  2.142E-04 1.365E-03

     total cpu time spent up to now is       20.9 secs

     total energy              =   -2289.07334307 Ry
     estimated scf accuracy    <       6.44896725 Ry

     total magnetization       =    12.00 Bohr mag/cell
     absolute magnetization    =    25.40 Bohr mag/cell

     iteration #  4     ecut=    90.00 Ry     beta= 0.40
     Davidson diagonalization with overlap

---- Real-time Memory Report at c_bands before calling an iterative solver
           320 MiB given to the printing process from OS
           158 MiB allocation reported by mallinfo(arena+hblkhd)
        231229 MiB available memory on the node where the printing process lives
------------------
     ethr =  4.48E-03,  avg # of iterations =  3.1

     negative rho (up, down):  1.425E-04 9.649E-04

     total cpu time spent up to now is       25.1 secs

     total energy              =   -2289.53512170 Ry
     estimated scf accuracy    <      17.98098905 Ry

     total magnetization       =     8.00 Bohr mag/cell
     absolute magnetization    =    20.36 Bohr mag/cell

     iteration #  5     ecut=    90.00 Ry     beta= 0.40
     Davidson diagonalization with overlap

---- Real-time Memory Report at c_bands before calling an iterative solver
           321 MiB given to the printing process from OS
           158 MiB allocation reported by mallinfo(arena+hblkhd)
        231212 MiB available memory on the node where the printing process lives
------------------
     ethr =  4.48E-03,  avg # of iterations =  2.6

     negative rho (up, down):  1.067E-04 6.456E-04

     total cpu time spent up to now is       29.6 secs

     total energy              =   -2290.04279327 Ry
     estimated scf accuracy    <       6.71553041 Ry

     total magnetization       =    11.45 Bohr mag/cell
     absolute magnetization    =    19.27 Bohr mag/cell

     iteration #  6     ecut=    90.00 Ry     beta= 0.40
     Davidson diagonalization with overlap

---- Real-time Memory Report at c_bands before calling an iterative solver
           323 MiB given to the printing process from OS
           159 MiB allocation reported by mallinfo(arena+hblkhd)
        231191 MiB available memory on the node where the printing process lives
------------------
     ethr =  4.48E-03,  avg # of iterations =  1.6

     negative rho (up, down):  9.460E-05 2.837E-04

     total cpu time spent up to now is       33.5 secs

     total energy              =   -2289.38358840 Ry
     estimated scf accuracy    <      15.42941837 Ry

     total magnetization       =     7.62 Bohr mag/cell
     absolute magnetization    =    16.37 Bohr mag/cell

     iteration #  7     ecut=    90.00 Ry     beta= 0.40
     Davidson diagonalization with overlap

---- Real-time Memory Report at c_bands before calling an iterative solver
           324 MiB given to the printing process from OS
           160 MiB allocation reported by mallinfo(arena+hblkhd)
        231179 MiB available memory on the node where the printing process lives
------------------
     ethr =  4.48E-03,  avg # of iterations =  2.0

     negative rho (up, down):  8.491E-05 2.774E-04

     total cpu time spent up to now is       37.4 secs

     total energy              =   -2291.26345203 Ry
     estimated scf accuracy    <      17.77363132 Ry

     total magnetization       =    11.97 Bohr mag/cell
     absolute magnetization    =    15.84 Bohr mag/cell

     iteration #  8     ecut=    90.00 Ry     beta= 0.40
     Davidson diagonalization with overlap

---- Real-time Memory Report at c_bands before calling an iterative solver
           325 MiB given to the printing process from OS
           161 MiB allocation reported by mallinfo(arena+hblkhd)
        231163 MiB available memory on the node where the printing process lives
------------------
     ethr =  4.48E-03,  avg # of iterations =  1.0

     negative rho (up, down):  4.845E-05 2.512E-04

     total cpu time spent up to now is       40.8 secs

     total energy              =   -2290.14774867 Ry
     estimated scf accuracy    <      15.12327215 Ry

     total magnetization       =    11.83 Bohr mag/cell
     absolute magnetization    =    16.06 Bohr mag/cell

     iteration #  9     ecut=    90.00 Ry     beta= 0.40
     Davidson diagonalization with overlap

---- Real-time Memory Report at c_bands before calling an iterative solver
           326 MiB given to the printing process from OS
           162 MiB allocation reported by mallinfo(arena+hblkhd)
        231157 MiB available memory on the node where the printing process lives
------------------
     ethr =  4.48E-03,  avg # of iterations =  1.2

     negative rho (up, down):  6.806E-05 2.602E-04

     total cpu time spent up to now is       44.4 secs

     total energy              =   -2290.83103987 Ry
     estimated scf accuracy    <       1.67529049 Ry

     total magnetization       =     7.64 Bohr mag/cell
     absolute magnetization    =    20.49 Bohr mag/cell

     iteration # 10     ecut=    90.00 Ry     beta= 0.40
     Davidson diagonalization with overlap

---- Real-time Memory Report at c_bands before calling an iterative solver
           327 MiB given to the printing process from OS
           163 MiB allocation reported by mallinfo(arena+hblkhd)
        231128 MiB available memory on the node where the printing process lives
------------------
     ethr =  1.16E-03,  avg # of iterations =  1.5

     negative rho (up, down):  4.726E-05 2.481E-04

     total cpu time spent up to now is       48.2 secs

     total energy              =   -2290.82733760 Ry
     estimated scf accuracy    <       0.27690801 Ry

     total magnetization       =     7.99 Bohr mag/cell
     absolute magnetization    =    21.56 Bohr mag/cell

     iteration # 11     ecut=    90.00 Ry     beta= 0.40
     Davidson diagonalization with overlap

---- Real-time Memory Report at c_bands before calling an iterative solver
           328 MiB given to the printing process from OS
           163 MiB allocation reported by mallinfo(arena+hblkhd)
        231133 MiB available memory on the node where the printing process lives
------------------
     ethr =  1.92E-04,  avg # of iterations =  1.8

     negative rho (up, down):  9.339E-05 2.728E-04

     total cpu time spent up to now is       52.1 secs

     total energy              =   -2290.87429059 Ry
     estimated scf accuracy    <       0.36280066 Ry

     total magnetization       =     7.87 Bohr mag/cell
     absolute magnetization    =    20.69 Bohr mag/cell

     iteration # 12     ecut=    90.00 Ry     beta= 0.40
     Davidson diagonalization with overlap

---- Real-time Memory Report at c_bands before calling an iterative solver
           328 MiB given to the printing process from OS
           163 MiB allocation reported by mallinfo(arena+hblkhd)
        231141 MiB available memory on the node where the printing process lives
------------------
     ethr =  1.92E-04,  avg # of iterations =  1.5

     negative rho (up, down):  1.224E-04 2.969E-04

     total cpu time spent up to now is       55.8 secs

     total energy              =   -2290.91497297 Ry
     estimated scf accuracy    <       0.09273924 Ry

     total magnetization       =     8.07 Bohr mag/cell
     absolute magnetization    =    21.95 Bohr mag/cell

     iteration # 13     ecut=    90.00 Ry     beta= 0.40
     Davidson diagonalization with overlap

---- Real-time Memory Report at c_bands before calling an iterative solver
           328 MiB given to the printing process from OS
           163 MiB allocation reported by mallinfo(arena+hblkhd)
        231138 MiB available memory on the node where the printing process lives
------------------
     ethr =  6.44E-05,  avg # of iterations =  1.7

     negative rho (up, down):  1.351E-04 3.311E-04

     total cpu time spent up to now is       59.6 secs

     total energy              =   -2290.91985066 Ry
     estimated scf accuracy    <       0.11241278 Ry

     total magnetization       =     8.14 Bohr mag/cell
     absolute magnetization    =    22.79 Bohr mag/cell

     iteration # 14     ecut=    90.00 Ry     beta= 0.40
     Davidson diagonalization with overlap

---- Real-time Memory Report at c_bands before calling an iterative solver
           328 MiB given to the printing process from OS
           163 MiB allocation reported by mallinfo(arena+hblkhd)
        231136 MiB available memory on the node where the printing process lives
------------------
     ethr =  6.44E-05,  avg # of iterations =  1.0

     negative rho (up, down):  1.377E-04 3.351E-04

     total cpu time spent up to now is       63.1 secs

     total energy              =   -2290.91931624 Ry
     estimated scf accuracy    <       0.04687629 Ry

     total magnetization       =     8.19 Bohr mag/cell
     absolute magnetization    =    22.92 Bohr mag/cell

     iteration # 15     ecut=    90.00 Ry     beta= 0.40
     Davidson diagonalization with overlap

---- Real-time Memory Report at c_bands before calling an iterative solver
           328 MiB given to the printing process from OS
           163 MiB allocation reported by mallinfo(arena+hblkhd)
        231142 MiB available memory on the node where the printing process lives
------------------
     ethr =  3.26E-05,  avg # of iterations =  1.4

     negative rho (up, down):  1.369E-04 3.231E-04

     total cpu time spent up to now is       66.7 secs

     total energy              =   -2290.91976724 Ry
     estimated scf accuracy    <       0.01136829 Ry

     total magnetization       =     8.20 Bohr mag/cell
     absolute magnetization    =    22.76 Bohr mag/cell

     iteration # 16     ecut=    90.00 Ry     beta= 0.40
     Davidson diagonalization with overlap

---- Real-time Memory Report at c_bands before calling an iterative solver
           328 MiB given to the printing process from OS
           163 MiB allocation reported by mallinfo(arena+hblkhd)
        231136 MiB available memory on the node where the printing process lives
------------------
     ethr =  7.89E-06,  avg # of iterations =  2.0

     negative rho (up, down):  1.377E-04 3.190E-04

     total cpu time spent up to now is       70.6 secs

     total energy              =   -2290.92007322 Ry
     estimated scf accuracy    <       0.00541026 Ry

     total magnetization       =     8.20 Bohr mag/cell
     absolute magnetization    =    22.69 Bohr mag/cell

     iteration # 17     ecut=    90.00 Ry     beta= 0.40
     Davidson diagonalization with overlap

---- Real-time Memory Report at c_bands before calling an iterative solver
           328 MiB given to the printing process from OS
           163 MiB allocation reported by mallinfo(arena+hblkhd)
        231129 MiB available memory on the node where the printing process lives
------------------
     ethr =  3.76E-06,  avg # of iterations =  1.8

     negative rho (up, down):  1.440E-04 3.367E-04

     total cpu time spent up to now is       74.5 secs

     total energy              =   -2290.92021787 Ry
     estimated scf accuracy    <       0.00377592 Ry

     total magnetization       =     8.21 Bohr mag/cell
     absolute magnetization    =    22.69 Bohr mag/cell

     iteration # 18     ecut=    90.00 Ry     beta= 0.40
     Davidson diagonalization with overlap

---- Real-time Memory Report at c_bands before calling an iterative solver
           328 MiB given to the printing process from OS
           163 MiB allocation reported by mallinfo(arena+hblkhd)
        231141 MiB available memory on the node where the printing process lives
------------------
     ethr =  2.62E-06,  avg # of iterations =  1.7

     negative rho (up, down):  1.413E-04 3.167E-04

     total cpu time spent up to now is       78.4 secs

     total energy              =   -2290.92055791 Ry
     estimated scf accuracy    <       0.00026179 Ry

     total magnetization       =     8.22 Bohr mag/cell
     absolute magnetization    =    22.74 Bohr mag/cell

     iteration # 19     ecut=    90.00 Ry     beta= 0.40
     Davidson diagonalization with overlap

---- Real-time Memory Report at c_bands before calling an iterative solver
           328 MiB given to the printing process from OS
           163 MiB allocation reported by mallinfo(arena+hblkhd)
        231114 MiB available memory on the node where the printing process lives
------------------
     ethr =  1.82E-07,  avg # of iterations =  4.7

     negative rho (up, down):  1.416E-04 3.193E-04

     total cpu time spent up to now is       84.7 secs

     total energy              =   -2290.92072274 Ry
     estimated scf accuracy    <       0.00014546 Ry

     total magnetization       =     8.22 Bohr mag/cell
     absolute magnetization    =    22.66 Bohr mag/cell

     iteration # 20     ecut=    90.00 Ry     beta= 0.40
     Davidson diagonalization with overlap

---- Real-time Memory Report at c_bands before calling an iterative solver
           328 MiB given to the printing process from OS
           163 MiB allocation reported by mallinfo(arena+hblkhd)
        231128 MiB available memory on the node where the printing process lives
------------------
     ethr =  1.01E-07,  avg # of iterations =  1.1

     negative rho (up, down):  1.412E-04 3.170E-04

     total cpu time spent up to now is       88.2 secs

     total energy              =   -2290.92071820 Ry
     estimated scf accuracy    <       0.00003421 Ry

     total magnetization       =     8.22 Bohr mag/cell
     absolute magnetization    =    22.69 Bohr mag/cell

     iteration # 21     ecut=    90.00 Ry     beta= 0.40
     Davidson diagonalization with overlap

---- Real-time Memory Report at c_bands before calling an iterative solver
           328 MiB given to the printing process from OS
           163 MiB allocation reported by mallinfo(arena+hblkhd)
        231127 MiB available memory on the node where the printing process lives
------------------
     ethr =  2.38E-08,  avg # of iterations =  2.1

     negative rho (up, down):  1.409E-04 3.162E-04

     total cpu time spent up to now is       92.3 secs

     total energy              =   -2290.92072474 Ry
     estimated scf accuracy    <       0.00000527 Ry

     total magnetization       =     8.23 Bohr mag/cell
     absolute magnetization    =    22.70 Bohr mag/cell

     iteration # 22     ecut=    90.00 Ry     beta= 0.40
     Davidson diagonalization with overlap

---- Real-time Memory Report at c_bands before calling an iterative solver
           328 MiB given to the printing process from OS
           163 MiB allocation reported by mallinfo(arena+hblkhd)
        231117 MiB available memory on the node where the printing process lives
------------------
     ethr =  3.66E-09,  avg # of iterations =  2.7

     negative rho (up, down):  1.410E-04 3.165E-04

     total cpu time spent up to now is       96.5 secs

     total energy              =   -2290.92072544 Ry
     estimated scf accuracy    <       0.00000027 Ry

     total magnetization       =     8.22 Bohr mag/cell
     absolute magnetization    =    22.70 Bohr mag/cell

     iteration # 23     ecut=    90.00 Ry     beta= 0.40
     Davidson diagonalization with overlap

---- Real-time Memory Report at c_bands before calling an iterative solver
           328 MiB given to the printing process from OS
           163 MiB allocation reported by mallinfo(arena+hblkhd)
        231127 MiB available memory on the node where the printing process lives
------------------
     ethr =  1.88E-10,  avg # of iterations =  5.5

     negative rho (up, down):  1.409E-04 3.164E-04

     total cpu time spent up to now is      103.6 secs

     total energy              =   -2290.92072566 Ry
     estimated scf accuracy    <       0.00000019 Ry

     total magnetization       =     8.22 Bohr mag/cell
     absolute magnetization    =    22.70 Bohr mag/cell

     iteration # 24     ecut=    90.00 Ry     beta= 0.40
     Davidson diagonalization with overlap

---- Real-time Memory Report at c_bands before calling an iterative solver
           328 MiB given to the printing process from OS
           163 MiB allocation reported by mallinfo(arena+hblkhd)
        231129 MiB available memory on the node where the printing process lives
------------------
     ethr =  1.35E-10,  avg # of iterations =  1.5

     negative rho (up, down):  1.409E-04 3.166E-04

     total cpu time spent up to now is      107.4 secs

     total energy              =   -2290.92072568 Ry
     estimated scf accuracy    <       0.00000001 Ry

     total magnetization       =     8.22 Bohr mag/cell
     absolute magnetization    =    22.70 Bohr mag/cell

     iteration # 25     ecut=    90.00 Ry     beta= 0.40
     Davidson diagonalization with overlap

---- Real-time Memory Report at c_bands before calling an iterative solver
           328 MiB given to the printing process from OS
           163 MiB allocation reported by mallinfo(arena+hblkhd)
        231131 MiB available memory on the node where the printing process lives
------------------
     ethr =  9.13E-12,  avg # of iterations =  4.1

     negative rho (up, down):  1.410E-04 3.168E-04

     Magnetic moment per site  (integrated on atomic sphere of radius R)
     atom   1 (R=0.136)  charge= 13.0330  magn= -3.2445
     atom   2 (R=0.136)  charge= 13.0330  magn= -3.2445
     atom   3 (R=0.140)  charge= 13.1890  magn=  3.3690
     atom   4 (R=0.140)  charge= 13.1890  magn=  3.3690
     atom   5 (R=0.140)  charge= 13.1890  magn=  3.3690
     atom   6 (R=0.140)  charge= 13.1890  magn=  3.3690
     atom   7 (R=0.136)  charge=  5.3729  magn=  0.0981
     atom   8 (R=0.136)  charge=  5.3729  magn=  0.0981
     atom   9 (R=0.136)  charge=  5.3729  magn=  0.0981
     atom  10 (R=0.136)  charge=  5.3729  magn=  0.0981
     atom  11 (R=0.136)  charge=  5.3729  magn=  0.0981
     atom  12 (R=0.136)  charge=  5.3729  magn=  0.0981
     atom  13 (R=0.136)  charge=  5.3729  magn=  0.0981
     atom  14 (R=0.136)  charge=  5.3729  magn=  0.0981

     total cpu time spent up to now is      112.8 secs

     End of self-consistent calculation

 ------ SPIN UP ------------


          k = 0.0000 0.0000 0.0000 ( 14331 PWs)   bands (ev):

   -78.4353 -78.4297 -78.4297 -78.4297 -74.3634 -74.3632 -44.8371 -44.7821
   -44.7821 -44.7821 -44.4934 -44.4934 -44.4929 -44.4929 -44.4929 -44.4735
   -44.4735 -44.4735 -40.6164 -40.6164 -40.6164 -40.6148 -40.6148 -40.6148
    -8.7221  -7.5071  -7.3551  -7.3551  -7.3551  -7.3139  -7.3139  -7.3139
     2.9647   3.8489   3.8489   3.8489   4.5061   4.9723   4.9723   5.1203
     5.1203   5.5531   5.5531   5.5531   5.7189   5.7189   5.7189   6.6893
     6.6893   6.6893   7.5652   7.5652   7.6573   7.6573   7.6573   8.0165
     8.0165   8.0165   8.1453   8.1453   8.1453   8.3373   8.3891   8.3891
     8.3891   8.8086   8.8086   8.8086  10.2936  10.2936  10.2936  10.5105
    10.5105  11.4701  11.4701  11.4701  11.7840  11.7840  12.5391  12.5391
    12.6668  12.6668  12.6668  12.9117  12.9117  12.9117

     occupation numbers 
     1.0000   1.0000   1.0000   1.0000   1.0000   1.0000   1.0000   1.0000
     1.0000   1.0000   1.0000   1.0000   1.0000   1.0000   1.0000   1.0000
     1.0000   1.0000   1.0000   1.0000   1.0000   1.0000   1.0000   1.0000
     1.0000   1.0000   1.0000   1.0000   1.0000   1.0000   1.0000   1.0000
     1.0000   1.0000   1.0000   1.0000   1.0000   1.0000   1.0000   1.0000
     1.0000   1.0000   1.0000   1.0000   1.0000   1.0000   1.0000   1.0000
     1.0000   1.0000   1.0000   1.0000   1.0000   1.0000   1.0000   1.0000
     1.0000   1.0000   1.0000   1.0000   1.0000   1.0000   1.0000   1.0000
     1.0000   1.0000   1.0000   1.0000   1.0000   1.0000   1.0000   1.0000
     1.0000   0.5920   0.5920   0.5920   0.0428   0.0428   0.0000   0.0000
     0.0000   0.0000   0.0000   0.0000   0.0000   0.0000

          k = 0.0786 0.0786-0.0786 ( 14355 PWs)   bands (ev):

   -78.4352 -78.4298 -78.4297 -78.4297 -74.3634 -74.3632 -44.8359 -44.7833
   -44.7821 -44.7821 -44.4933 -44.4933 -44.4930 -44.4925 -44.4925 -44.4740
   -44.4740 -44.4735 -40.6164 -40.6164 -40.6164 -40.6148 -40.6148 -40.6148
    -8.6919  -7.5281  -7.3803  -7.3630  -7.3630  -7.3099  -7.3067  -7.3067
     3.0237   3.8964   3.8964   3.9167   4.5049   4.9428   4.9428   5.1115
     5.1115   5.5420   5.6071   5.6071   5.7026   5.7026   5.7034   6.6167
     6.6726   6.6726   7.3242   7.3242   7.6913   7.7964   7.7964   7.8139
     8.0023   8.0023   8.1299   8.1841   8.1841   8.3890   8.3911   8.4472
     8.4472   8.8132   8.8132   8.8511  10.2807  10.2807  10.3298  10.5146
    10.5146  11.3836  11.3836  11.4437  11.8337  11.8337  12.4793  12.4793
    12.5406  12.6485  12.6485  12.9154  12.9545  12.9545

     occupation numbers 
     1.0000   1.0000   1.0000   1.0000   1.0000   1.0000   1.0000   1.0000
     1.0000   1.0000   1.0000   1.0000   1.0000   1.0000   1.0000   1.0000
     1.0000   1.0000   1.0000   1.0000   1.0000   1.0000   1.0000   1.0000
     1.0000   1.0000   1.0000   1.0000   1.0000   1.0000   1.0000   1.0000
     1.0000   1.0000   1.0000   1.0000   1.0000   1.0000   1.0000   1.0000
     1.0000   1.0000   1.0000   1.0000   1.0000   1.0000   1.0000   1.0000
     1.0000   1.0000   1.0000   1.0000   1.0000   1.0000   1.0000   1.0000
     1.0000   1.0000   1.0000   1.0000   1.0000   1.0000   1.0000   1.0000
     1.0000   1.0000   1.0000   1.0000   1.0000   1.0000   1.0000   1.0000
     1.0000   0.8212   0.8212   0.6647   0.0226   0.0226   0.0000   0.0000
     0.0000   0.0000   0.0000   0.0000   0.0000   0.0000

          k = 0.1571 0.1571-0.1571 ( 14407 PWs)   bands (ev):

   -78.4348 -78.4302 -78.4297 -78.4297 -74.3634 -74.3632 -44.8324 -44.7865
   -44.7820 -44.7820 -44.4932 -44.4932 -44.4932 -44.4911 -44.4911 -44.4757
   -44.4757 -44.4735 -40.6164 -40.6164 -40.6163 -40.6149 -40.6148 -40.6148
    -8.6052  -7.6151  -7.4034  -7.3772  -7.3772  -7.3168  -7.2941  -7.2941
     3.1891   4.0301   4.0301   4.1024   4.4906   4.8885   4.8885   5.0815
     5.0815   5.5225   5.6636   5.6636   5.6660   5.7233   5.7233   6.4451
     6.6003   6.6003   7.0442   7.0442   7.3357   7.7772   7.8633   7.8633
     7.9557   7.9557   8.1747   8.3194   8.3194   8.3888   8.4162   8.5483
     8.5483   8.8236   8.8236   8.9238  10.2492  10.2492  10.4261  10.5124
    10.5124  11.2334  11.2334  11.3757  11.9154  11.9154  12.3277  12.3368
    12.3368  12.6190  12.6190  12.8458  13.0284  13.0284

     occupation numbers 
     1.0000   1.0000   1.0000   1.0000   1.0000   1.0000   1.0000   1.0000
     1.0000   1.0000   1.0000   1.0000   1.0000   1.0000   1.0000   1.0000
     1.0000   1.0000   1.0000   1.0000   1.0000   1.0000   1.0000   1.0000
     1.0000   1.0000   1.0000   1.0000   1.0000   1.0000   1.0000   1.0000
     1.0000   1.0000   1.0000   1.0000   1.0000   1.0000   1.0000   1.0000
     1.0000   1.0000   1.0000   1.0000   1.0000   1.0000   1.0000   1.0000
     1.0000   1.0000   1.0000   1.0000   1.0000   1.0000   1.0000   1.0000
     1.0000   1.0000   1.0000   1.0000   1.0000   1.0000   1.0000   1.0000
     1.0000   1.0000   1.0000   1.0000   1.0000   1.0000   1.0000   1.0000
     1.0000   1.0591   1.0591   0.8399   0.0069   0.0069   0.0000   0.0000
     0.0000   0.0000   0.0000   0.0000   0.0000   0.0000

          k = 0.2357 0.2357-0.2357 ( 14398 PWs)   bands (ev):

   -78.4343 -78.4306 -78.4297 -78.4297 -74.3634 -74.3632 -44.8278 -44.7909
   -44.7818 -44.7818 -44.4935 -44.4932 -44.4932 -44.4889 -44.4889 -44.4780
   -44.4780 -44.4735 -40.6165 -40.6165 -40.6163 -40.6150 -40.6147 -40.6147
    -8.4767  -7.7622  -7.4002  -7.3893  -7.3893  -7.3355  -7.2838  -7.2838
     3.4229   4.2165   4.2165   4.3199   4.4571   4.8528   4.8528   5.0258
     5.0258   5.5529   5.6261   5.6369   5.6369   5.7890   5.7890   6.2609
     6.4840   6.4840   6.7778   6.8595   6.8595   7.8720   7.8720   7.8751
     7.9381   7.9381   8.2233   8.3883   8.4085   8.4593   8.4593   8.6286
     8.6286   8.8307   8.8307   8.9760  10.2194  10.2194  10.4649  10.4649
    10.5412  11.1493  11.1493  11.2959  11.9840  11.9840  12.1791  12.1791
    12.2053  12.5870  12.5870  12.6692  13.0877  13.0877

     occupation numbers 
     1.0000   1.0000   1.0000   1.0000   1.0000   1.0000   1.0000   1.0000
     1.0000   1.0000   1.0000   1.0000   1.0000   1.0000   1.0000   1.0000
     1.0000   1.0000   1.0000   1.0000   1.0000   1.0000   1.0000   1.0000
     1.0000   1.0000   1.0000   1.0000   1.0000   1.0000   1.0000   1.0000
     1.0000   1.0000   1.0000   1.0000   1.0000   1.0000   1.0000   1.0000
     1.0000   1.0000   1.0000   1.0000   1.0000   1.0000   1.0000   1.0000
     1.0000   1.0000   1.0000   1.0000   1.0000   1.0000   1.0000   1.0000
     1.0000   1.0000   1.0000   1.0000   1.0000   1.0000   1.0000   1.0000
     1.0000   1.0000   1.0000   1.0000   1.0000   1.0000   1.0000   1.0000
     1.0000   1.0831   1.0831   0.9927   0.0022   0.0022   0.0000   0.0000
     0.0000   0.0000   0.0000   0.0000   0.0000   0.0000

          k = 0.3143 0.3143-0.3143 ( 14401 PWs)   bands (ev):

   -78.4339 -78.4310 -78.4297 -78.4297 -74.3634 -74.3632 -44.8240 -44.7946
   -44.7817 -44.7817 -44.4937 -44.4932 -44.4932 -44.4866 -44.4866 -44.4804
   -44.4804 -44.4735 -40.6165 -40.6165 -40.6163 -40.6150 -40.6147 -40.6147
    -8.3499  -7.9041  -7.3961  -7.3961  -7.3835  -7.3592  -7.2782  -7.2782
     3.6369   4.2872   4.3740   4.3740   4.5652   4.8629   4.8629   4.9459
     4.9459   5.6014   5.6408   5.6408   5.7405   5.7410   5.7410   6.0692
     6.3276   6.4522   6.4522   6.7599   6.7599   7.8626   7.8626   7.9395
     7.9426   7.9426   8.2535   8.3879   8.3941   8.5467   8.5467   8.6714
     8.6714   8.8297   8.8297   8.9997  10.2118  10.2118  10.3906  10.3906
    10.6161  11.1486  11.1486  11.2422  12.0129  12.0129  12.0805  12.0805
    12.2509  12.4399  12.5634  12.5634  13.1191  13.1191

     occupation numbers 
     1.0000   1.0000   1.0000   1.0000   1.0000   1.0000   1.0000   1.0000
     1.0000   1.0000   1.0000   1.0000   1.0000   1.0000   1.0000   1.0000
     1.0000   1.0000   1.0000   1.0000   1.0000   1.0000   1.0000   1.0000
     1.0000   1.0000   1.0000   1.0000   1.0000   1.0000   1.0000   1.0000
     1.0000   1.0000   1.0000   1.0000   1.0000   1.0000   1.0000   1.0000
     1.0000   1.0000   1.0000   1.0000   1.0000   1.0000   1.0000   1.0000
     1.0000   1.0000   1.0000   1.0000   1.0000   1.0000   1.0000   1.0000
     1.0000   1.0000   1.0000   1.0000   1.0000   1.0000   1.0000   1.0000
     1.0000   1.0000   1.0000   1.0000   1.0000   1.0000   1.0000   1.0000
     1.0002   1.0831   1.0831   1.0526   0.0013   0.0013   0.0004   0.0004
     0.0000   0.0000   0.0000   0.0000   0.0000   0.0000

          k = 0.1571 0.0000-0.0000 ( 14360 PWs)   bands (ev):

   -78.4351 -78.4299 -78.4297 -78.4297 -74.3634 -74.3632 -44.8354 -44.7837
   -44.7820 -44.7820 -44.4934 -44.4929 -44.4928 -44.4925 -44.4925 -44.4741
   -44.4739 -44.4739 -40.6164 -40.6164 -40.6163 -40.6149 -40.6148 -40.6148
    -8.6818  -7.5316  -7.3741  -7.3741  -7.3724  -7.3273  -7.2963  -7.2963
     3.0431   3.9056   3.9288   3.9288   4.5047   4.8786   5.0028   5.0762
     5.1416   5.5352   5.5352   5.6917   5.6965   5.6965   5.7173   6.6419
     6.6419   6.6444   7.1830   7.4570   7.5991   7.5991   7.9353   7.9353
     7.9804   8.0295   8.0341   8.1912   8.1912   8.3978   8.4297   8.4476
     8.4476   8.7958   8.8539   8.8539  10.2952  10.2952  10.3006  10.4929
    10.5350  11.3557  11.3930  11.3930  11.8036  11.8919  12.4127  12.5205
    12.5607  12.6100  12.6100  12.9132  12.9658  12.9658

     occupation numbers 
     1.0000   1.0000   1.0000   1.0000   1.0000   1.0000   1.0000   1.0000
     1.0000   1.0000   1.0000   1.0000   1.0000   1.0000   1.0000   1.0000
     1.0000   1.0000   1.0000   1.0000   1.0000   1.0000   1.0000   1.0000
     1.0000   1.0000   1.0000   1.0000   1.0000   1.0000   1.0000   1.0000
     1.0000   1.0000   1.0000   1.0000   1.0000   1.0000   1.0000   1.0000
     1.0000   1.0000   1.0000   1.0000   1.0000   1.0000   1.0000   1.0000
     1.0000   1.0000   1.0000   1.0000   1.0000   1.0000   1.0000   1.0000
     1.0000   1.0000   1.0000   1.0000   1.0000   1.0000   1.0000   1.0000
     1.0000   1.0000   1.0000   1.0000   1.0000   1.0000   1.0000   1.0000
     1.0000   0.8848   0.7982   0.7982   0.0335   0.0098   0.0000   0.0000
     0.0000   0.0000   0.0000   0.0000   0.0000   0.0000

          k = 0.2357 0.0786-0.0786 ( 14382 PWs)   bands (ev):

   -78.4348 -78.4301 -78.4297 -78.4297 -74.3634 -74.3632 -44.8327 -44.7864
   -44.7819 -44.7819 -44.4934 -44.4931 -44.4927 -44.4917 -44.4912 -44.4756
   -44.4749 -44.4740 -40.6165 -40.6165 -40.6163 -40.6149 -40.6148 -40.6148
    -8.6139  -7.5881  -7.4075  -7.3884  -7.3876  -7.3204  -7.2911  -7.2837
     3.1723   3.9992   4.0479   4.0711   4.4968   4.8132   4.9971   5.0246
     5.1443   5.4978   5.5499   5.6837   5.6940   5.7067   5.8254   6.5014
     6.5742   6.6093   6.9218   7.1680   7.5792   7.6107   7.6359   7.9022
     8.0229   8.0781   8.1860   8.2389   8.2923   8.4022   8.4498   8.5051
     8.5486   8.7774   8.8944   8.9187  10.2491  10.2859  10.3716  10.4666
    10.5583  11.2142  11.2702  11.3296  11.8569  11.9707  12.2771  12.3897
    12.4323  12.5811  12.5926  12.9207  12.9807  13.0165

     occupation numbers 
     1.0000   1.0000   1.0000   1.0000   1.0000   1.0000   1.0000   1.0000
     1.0000   1.0000   1.0000   1.0000   1.0000   1.0000   1.0000   1.0000
     1.0000   1.0000   1.0000   1.0000   1.0000   1.0000   1.0000   1.0000
     1.0000   1.0000   1.0000   1.0000   1.0000   1.0000   1.0000   1.0000
     1.0000   1.0000   1.0000   1.0000   1.0000   1.0000   1.0000   1.0000
     1.0000   1.0000   1.0000   1.0000   1.0000   1.0000   1.0000   1.0000
     1.0000   1.0000   1.0000   1.0000   1.0000   1.0000   1.0000   1.0000
     1.0000   1.0000   1.0000   1.0000   1.0000   1.0000   1.0000   1.0000
     1.0000   1.0000   1.0000   1.0000   1.0000   1.0000   1.0000   1.0000
     1.0001   1.0704   1.0258   0.9371   0.0164   0.0028   0.0000   0.0000
     0.0000   0.0000   0.0000   0.0000   0.0000   0.0000

          k = 0.3143 0.1571-0.1571 ( 14393 PWs)   bands (ev):

   -78.4344 -78.4306 -78.4297 -78.4297 -74.3634 -74.3632 -44.8283 -44.7906
   -44.7818 -44.7818 -44.4934 -44.4933 -44.4927 -44.4899 -44.4890 -44.4779
   -44.4769 -44.4740 -40.6165 -40.6165 -40.6162 -40.6150 -40.6147 -40.6147
    -8.4982  -7.7114  -7.4415  -7.3994  -7.3939  -7.3022  -7.2958  -7.2745
     3.3842   4.1622   4.2248   4.2881   4.4657   4.7868   4.9514   4.9653
     5.0987   5.4593   5.5680   5.6568   5.6852   5.7749   5.9276   6.3156
     6.4331   6.4969   6.7363   6.7985   7.2426   7.6024   7.6427   7.8989
     8.0180   8.1195   8.2704   8.3681   8.3983   8.4327   8.4549   8.5699
     8.6612   8.7610   8.9157   8.9758  10.2037  10.2635  10.4239  10.4792
    10.5487  11.0915  11.1481  11.2566  11.9280  12.0295  12.1289  12.2484
    12.2798  12.5425  12.5815  12.8099  13.0257  13.0689

     occupation numbers 
     1.0000   1.0000   1.0000   1.0000   1.0000   1.0000   1.0000   1.0000
     1.0000   1.0000   1.0000   1.0000   1.0000   1.0000   1.0000   1.0000
     1.0000   1.0000   1.0000   1.0000   1.0000   1.0000   1.0000   1.0000
     1.0000   1.0000   1.0000   1.0000   1.0000   1.0000   1.0000   1.0000
     1.0000   1.0000   1.0000   1.0000   1.0000   1.0000   1.0000   1.0000
     1.0000   1.0000   1.0000   1.0000   1.0000   1.0000   1.0000   1.0000
     1.0000   1.0000   1.0000   1.0000   1.0000   1.0000   1.0000   1.0000
     1.0000   1.0000   1.0000   1.0000   1.0000   1.0000   1.0000   1.0000
     1.0000   1.0000   1.0000   1.0000   1.0000   1.0000   1.0000   1.0000
     1.0001   1.0725   1.0831   1.0400   0.0056   0.0010   0.0001   0.0000
     0.0000   0.0000   0.0000   0.0000   0.0000   0.0000

          k = 0.3928 0.2357-0.2357 ( 14421 PWs)   bands (ev):

   -78.4339 -78.4310 -78.4297 -78.4297 -74.3634 -74.3632 -44.8238 -44.7948
   -44.7817 -44.7817 -44.4937 -44.4933 -44.4928 -44.4876 -44.4867 -44.4803
   -44.4794 -44.4740 -40.6165 -40.6165 -40.6162 -40.6151 -40.6147 -40.6147
    -8.3634  -7.8602  -7.4654  -7.4043  -7.3877  -7.3138  -7.2803  -7.2708
     3.6161   4.3060   4.3750   4.3928   4.5117   4.8269   4.9194   4.9281
     4.9989   5.4693   5.5791   5.6343   5.7126   5.7791   5.8936   6.1545
     6.3585   6.3889   6.4756   6.6866   6.9532   7.6246   7.6487   7.9076
     8.0169   8.1519   8.3059   8.4019   8.4114   8.5216   8.5243   8.6265
     8.6988   8.7890   8.9029   9.0032  10.1922  10.2459  10.3755  10.4666
    10.5699  11.0832  11.0868  11.1926  11.9606  12.0377  12.0594  12.1368
    12.2628  12.4944  12.5684  12.6180  13.0653  13.1033

     occupation numbers 
     1.0000   1.0000   1.0000   1.0000   1.0000   1.0000   1.0000   1.0000
     1.0000   1.0000   1.0000   1.0000   1.0000   1.0000   1.0000   1.0000
     1.0000   1.0000   1.0000   1.0000   1.0000   1.0000   1.0000   1.0000
     1.0000   1.0000   1.0000   1.0000   1.0000   1.0000   1.0000   1.0000
     1.0000   1.0000   1.0000   1.0000   1.0000   1.0000   1.0000   1.0000
     1.0000   1.0000   1.0000   1.0000   1.0000   1.0000   1.0000   1.0000
     1.0000   1.0000   1.0000   1.0000   1.0000   1.0000   1.0000   1.0000
     1.0000   1.0000   1.0000   1.0000   1.0000   1.0000   1.0000   1.0000
     1.0000   1.0000   1.0000   1.0000   1.0000   1.0000   1.0000   1.0000
     1.0001   1.0701   1.0712   1.0785   0.0033   0.0008   0.0005   0.0001
     0.0000   0.0000   0.0000   0.0000   0.0000   0.0000

          k =-0.2357-0.3928 0.3928 ( 14394 PWs)   bands (ev):

   -78.4338 -78.4312 -78.4297 -78.4297 -74.3634 -74.3632 -44.8223 -44.7963
   -44.7817 -44.7816 -44.4937 -44.4932 -44.4928 -44.4864 -44.4858 -44.4812
   -44.4806 -44.4740 -40.6166 -40.6165 -40.6162 -40.6151 -40.6147 -40.6147
    -8.3062  -7.9220  -7.4780  -7.4018  -7.3772  -7.3253  -7.2732  -7.2704
     3.7086   4.2649   4.4341   4.4660   4.5434   4.8683   4.8710   4.9452
     4.9532   5.5613   5.5767   5.6035   5.6285   5.7861   5.8663   6.1021
     6.3117   6.3916   6.4179   6.7434   6.7914   7.6378   7.6481   7.9028
     8.0145   8.1667   8.3200   8.4013   8.4063   8.5490   8.5538   8.6676
     8.6697   8.8481   8.8574   9.0085  10.2145  10.2263  10.3859  10.4020
    10.5992  11.0460  11.1234  11.1792  11.9792  12.0344  12.0358  12.0807
    12.3530  12.4253  12.5328  12.5697  13.0768  13.1122

     occupation numbers 
     1.0000   1.0000   1.0000   1.0000   1.0000   1.0000   1.0000   1.0000
     1.0000   1.0000   1.0000   1.0000   1.0000   1.0000   1.0000   1.0000
     1.0000   1.0000   1.0000   1.0000   1.0000   1.0000   1.0000   1.0000
     1.0000   1.0000   1.0000   1.0000   1.0000   1.0000   1.0000   1.0000
     1.0000   1.0000   1.0000   1.0000   1.0000   1.0000   1.0000   1.0000
     1.0000   1.0000   1.0000   1.0000   1.0000   1.0000   1.0000   1.0000
     1.0000   1.0000   1.0000   1.0000   1.0000   1.0000   1.0000   1.0000
     1.0000   1.0000   1.0000   1.0000   1.0000   1.0000   1.0000   1.0000
     1.0000   1.0000   1.0000   1.0000   1.0000   1.0000   1.0000   1.0000
     1.0002   1.0578   1.0801   1.0815   0.0024   0.0009   0.0009   0.0004
     0.0000   0.0000   0.0000   0.0000   0.0000   0.0000

          k =-0.1571-0.3143 0.3143 ( 14401 PWs)   bands (ev):

   -78.4341 -78.4309 -78.4297 -78.4297 -74.3634 -74.3632 -44.8252 -44.7935
   -44.7818 -44.7816 -44.4936 -44.4932 -44.4928 -44.4885 -44.4871 -44.4798
   -44.4783 -44.4739 -40.6165 -40.6165 -40.6162 -40.6150 -40.6147 -40.6147
    -8.4074  -7.8118  -7.4765  -7.3925  -7.3746  -7.3232  -7.2811  -7.2705
     3.5434   4.2976   4.3091   4.3824   4.4882   4.8117   4.8939   4.9824
     4.9858   5.5044   5.5946   5.6145   5.6197   5.8761   5.8857   6.1844
     6.3713   6.4231   6.5369   6.8565   6.9084   7.6307   7.6548   7.8823
     8.0030   8.1597   8.3054   8.3976   8.4115   8.4855   8.5016   8.6150
     8.6926   8.7938   8.8865   8.9958  10.2009  10.2406  10.4253  10.4800
    10.5534  11.0184  11.1499  11.2288  12.0005  12.0064  12.1089  12.1105
    12.2418  12.5170  12.5912  12.6616  13.0584  13.0936

     occupation numbers 
     1.0000   1.0000   1.0000   1.0000   1.0000   1.0000   1.0000   1.0000
     1.0000   1.0000   1.0000   1.0000   1.0000   1.0000   1.0000   1.0000
     1.0000   1.0000   1.0000   1.0000   1.0000   1.0000   1.0000   1.0000
     1.0000   1.0000   1.0000   1.0000   1.0000   1.0000   1.0000   1.0000
     1.0000   1.0000   1.0000   1.0000   1.0000   1.0000   1.0000   1.0000
     1.0000   1.0000   1.0000   1.0000   1.0000   1.0000   1.0000   1.0000
     1.0000   1.0000   1.0000   1.0000   1.0000   1.0000   1.0000   1.0000
     1.0000   1.0000   1.0000   1.0000   1.0000   1.0000   1.0000   1.0000
     1.0000   1.0000   1.0000   1.0000   1.0000   1.0000   1.0000   1.0000
     1.0001   1.0483   1.0832   1.0622   0.0016   0.0015   0.0002   0.0002
     0.0000   0.0000   0.0000   0.0000   0.0000   0.0000

          k =-0.0786-0.2357 0.2357 ( 14383 PWs)   bands (ev):

   -78.4345 -78.4304 -78.4297 -78.4297 -74.3634 -74.3632 -44.8299 -44.7890
   -44.7819 -44.7818 -44.4934 -44.4932 -44.4929 -44.4907 -44.4896 -44.4773
   -44.4759 -44.4739 -40.6165 -40.6164 -40.6163 -40.6150 -40.6148 -40.6147
    -8.5413  -7.6650  -7.4560  -7.3800  -7.3786  -7.3100  -7.2931  -7.2804
     3.3071   4.1055   4.1609   4.2145   4.4780   4.8178   4.9183   5.0290
     5.0655   5.5159   5.6000   5.6310   5.6352   5.8141   5.8597   6.3544
     6.5197   6.5340   6.7019   7.1174   7.2379   7.5948   7.6853   7.8558
     7.9771   8.1458   8.2692   8.3415   8.3662   8.4018   8.4403   8.5503
     8.6447   8.7649   8.8932   8.9563  10.2106  10.2737  10.4556  10.4705
    10.5434  11.0870  11.2253  11.2946  11.9370  11.9766  12.2241  12.2524
    12.2945  12.5384  12.6220  12.8532  13.0135  13.0507

     occupation numbers 
     1.0000   1.0000   1.0000   1.0000   1.0000   1.0000   1.0000   1.0000
     1.0000   1.0000   1.0000   1.0000   1.0000   1.0000   1.0000   1.0000
     1.0000   1.0000   1.0000   1.0000   1.0000   1.0000   1.0000   1.0000
     1.0000   1.0000   1.0000   1.0000   1.0000   1.0000   1.0000   1.0000
     1.0000   1.0000   1.0000   1.0000   1.0000   1.0000   1.0000   1.0000
     1.0000   1.0000   1.0000   1.0000   1.0000   1.0000   1.0000   1.0000
     1.0000   1.0000   1.0000   1.0000   1.0000   1.0000   1.0000   1.0000
     1.0000   1.0000   1.0000   1.0000   1.0000   1.0000   1.0000   1.0000
     1.0000   1.0000   1.0000   1.0000   1.0000   1.0000   1.0000   1.0000
     1.0000   1.0712   1.0643   0.9946   0.0049   0.0025   0.0000   0.0000
     0.0000   0.0000   0.0000   0.0000   0.0000   0.0000

          k =-0.0000-0.1571 0.1571 ( 14371 PWs)   bands (ev):

   -78.4349 -78.4300 -78.4297 -78.4297 -74.3634 -74.3632 -44.8339 -44.7852
   -44.7820 -44.7819 -44.4932 -44.4931 -44.4931 -44.4920 -44.4915 -44.4752
   -44.4744 -44.4738 -40.6164 -40.6164 -40.6163 -40.6149 -40.6148 -40.6148
    -8.6428  -7.5662  -7.4103  -7.3816  -7.3654  -7.3048  -7.3013  -7.2971
     3.1180   3.9588   4.0038   4.0071   4.5000   4.8668   4.9539   5.0720
     5.1151   5.5392   5.5918   5.6671   5.6715   5.7160   5.7471   6.5312
     6.6142   6.6439   7.0014   7.3114   7.5835   7.6547   7.7759   7.8215
     7.9268   8.1142   8.2074   8.2144   8.2344   8.3941   8.4260   8.4865
     8.5304   8.7823   8.8710   8.8889  10.2465  10.2940  10.3654  10.4974
    10.5365  11.2468  11.3511  11.3592  11.8649  11.9105  12.3661  12.4110
    12.4414  12.5733  12.6469  12.9516  12.9530  12.9951

     occupation numbers 
     1.0000   1.0000   1.0000   1.0000   1.0000   1.0000   1.0000   1.0000
     1.0000   1.0000   1.0000   1.0000   1.0000   1.0000   1.0000   1.0000
     1.0000   1.0000   1.0000   1.0000   1.0000   1.0000   1.0000   1.0000
     1.0000   1.0000   1.0000   1.0000   1.0000   1.0000   1.0000   1.0000
     1.0000   1.0000   1.0000   1.0000   1.0000   1.0000   1.0000   1.0000
[...]
    14.1551  14.1627  14.5159  14.5161  14.6673  14.6712

     occupation numbers 
     1.0000   1.0000   1.0000   1.0000   1.0000   1.0000   1.0000   1.0000
     1.0000   1.0000   1.0000   1.0000   1.0000   1.0000   1.0000   1.0000
     1.0000   1.0000   1.0000   1.0000   1.0000   1.0000   1.0000   1.0000
     1.0000   1.0000   1.0000   1.0000   1.0000   1.0000   1.0000   1.0000
     1.0000   1.0000   1.0000   1.0000   1.0000   1.0000   1.0000   1.0000
     1.0000   1.0000   1.0000   1.0000   1.0000   1.0000   1.0000   1.0000
     1.0000   1.0000   1.0000   1.0000   1.0000   1.0000   1.0000   1.0000
     1.0000   1.0000   1.0000   1.0000   1.0000   1.0000   1.0000   1.0000
     1.0000   1.0000   0.8512   0.5913   0.0921   0.0070   0.0009   0.0004
     0.0004   0.0000   0.0000   0.0000   0.0000   0.0000   0.0000   0.0000
     0.0000   0.0000   0.0000   0.0000   0.0000   0.0000

          k =-0.0000-0.4783 0.6377 ( 13794 PWs)   bands (ev):

   -77.6549 -77.6549 -73.4854 -73.4847 -73.4809 -73.4809 -43.8230 -43.8230
   -43.8221 -43.8219 -43.8210 -43.8210 -39.8773 -39.8702 -39.8331 -39.8327
   -39.7110 -39.7101 -39.7046 -39.7013 -39.6966 -39.6940 -39.6897 -39.6867
    -7.3147  -7.2545  -7.0304  -6.9031  -6.6871  -6.6214  -6.5624  -6.5615
     4.6709   4.7395   5.4157   5.4672   5.4695   5.6993   5.7618   5.8374
     6.0710   6.0756   6.2728   6.2974   6.3473   6.3933   6.8643   6.9808
     7.4641   7.4729   7.7340   7.8091   7.8556   7.9507   8.3653   8.4892
     9.5256   9.5927   9.7447   9.8767   9.9398  10.0009  10.4735  10.5021
    10.6315  10.6679  12.1191  12.2036  12.4090  12.4389  12.6455  12.7628
    12.7756  12.8276  13.0377  13.0512  13.0785  13.0879  13.9612  13.9966
    14.1822  14.1829  14.4779  14.5004  14.5720  14.6171

     occupation numbers 
     1.0000   1.0000   1.0000   1.0000   1.0000   1.0000   1.0000   1.0000
     1.0000   1.0000   1.0000   1.0000   1.0000   1.0000   1.0000   1.0000
     1.0000   1.0000   1.0000   1.0000   1.0000   1.0000   1.0000   1.0000
     1.0000   1.0000   1.0000   1.0000   1.0000   1.0000   1.0000   1.0000
     1.0000   1.0000   1.0000   1.0000   1.0000   1.0000   1.0000   1.0000
     1.0000   1.0000   1.0000   1.0000   1.0000   1.0000   1.0000   1.0000
     1.0000   1.0000   1.0000   1.0000   1.0000   1.0000   1.0000   1.0000
     1.0000   1.0000   1.0000   1.0000   1.0000   1.0000   1.0000   1.0000
     1.0000   1.0000   0.6130   0.3869   0.0624   0.0438   0.0020   0.0002
     0.0002   0.0001   0.0000   0.0000   0.0000   0.0000   0.0000   0.0000
     0.0000   0.0000   0.0000   0.0000   0.0000   0.0000

          k =-0.0797-0.3986 0.7174 ( 13766 PWs)   bands (ev):

   -77.6549 -77.6549 -73.4856 -73.4845 -73.4809 -73.4809 -43.8230 -43.8230
   -43.8221 -43.8219 -43.8210 -43.8210 -39.8791 -39.8684 -39.8332 -39.8328
   -39.7109 -39.7105 -39.7041 -39.7017 -39.6953 -39.6952 -39.6891 -39.6870
    -7.3566  -7.1967  -7.0210  -6.9611  -6.6322  -6.6124  -6.5847  -6.5686
     4.6470   4.7530   5.3931   5.4963   5.5435   5.6715   5.6836   5.8698
     6.0261   6.1412   6.1915   6.3009   6.3068   6.5161   6.8262   6.8878
     7.4621   7.4862   7.7388   7.8726   7.9714   8.0931   8.2557   8.3068
     9.5060   9.6233   9.7705   9.8590   9.9492  10.0651  10.4498  10.4603
    10.6668  10.6823  12.2025  12.2825  12.2858  12.4127  12.6508  12.7395
    12.7593  12.8223  13.0344  13.0487  13.0820  13.0940  14.0135  14.0532
    14.2068  14.2282  14.4766  14.5051  14.5316  14.5384

     occupation numbers 
     1.0000   1.0000   1.0000   1.0000   1.0000   1.0000   1.0000   1.0000
     1.0000   1.0000   1.0000   1.0000   1.0000   1.0000   1.0000   1.0000
     1.0000   1.0000   1.0000   1.0000   1.0000   1.0000   1.0000   1.0000
     1.0000   1.0000   1.0000   1.0000   1.0000   1.0000   1.0000   1.0000
     1.0000   1.0000   1.0000   1.0000   1.0000   1.0000   1.0000   1.0000
     1.0000   1.0000   1.0000   1.0000   1.0000   1.0000   1.0000   1.0000
     1.0000   1.0000   1.0000   1.0000   1.0000   1.0000   1.0000   1.0000
     1.0000   1.0000   1.0000   1.0000   1.0000   1.0000   1.0000   1.0000
     1.0000   1.0000   0.3896   0.2169   0.2110   0.0598   0.0018   0.0003
     0.0002   0.0001   0.0000   0.0000   0.0000   0.0000   0.0000   0.0000
     0.0000   0.0000   0.0000   0.0000   0.0000   0.0000

     the Fermi energy is    12.1981 ev

!    total energy              =   -2290.96206246 Ry
     total all-electron energy =    -16459.814728 Ry
     estimated scf accuracy    <          1.2E-10 Ry
     smearing contrib. (-TS)   =      -0.00121880 Ry
     internal energy E=F+TS    =   -2290.96084366 Ry

     The total energy is F=E-TS. E is the sum of the following terms:
     one-electron contribution =    -929.98740732 Ry
     hartree contribution      =     543.83021038 Ry
     xc contribution           =    -265.93999523 Ry
     ewald contribution        =   -1121.51728898 Ry
     one-center paw contrib.   =    -517.34636251 Ry
      -> PAW hartree energy AE =     205.45294959 Ry
      -> PAW hartree energy PS =    -204.57911951 Ry
      -> PAW xc energy AE      =    -108.91414689 Ry
      -> PAW xc energy PS      =      33.95710445 Ry
      -> total E_H with PAW    =     544.70404047 Ry
      -> total E_XC with PAW   =    -340.89703768 Ry

     total magnetization       =     8.15 Bohr mag/cell
     absolute magnetization    =    22.16 Bohr mag/cell

     convergence has been achieved in  18 iterations

     negative rho (up, down):  1.232E-04 2.931E-04

     Forces acting on atoms (cartesian axes, Ry/au):

     atom    1 type  1   force =     0.00000000    0.00000000   -0.00000000
     atom    2 type  1   force =    -0.00000000    0.00000000    0.00000000
     atom    3 type  2   force =     0.00000000   -0.00000000    0.00000000
     atom    4 type  2   force =    -0.00000000    0.00000000    0.00000000
     atom    5 type  2   force =     0.00000000   -0.00000000    0.00000000
     atom    6 type  2   force =     0.00000000   -0.00000000   -0.00000000
     atom    7 type  3   force =    -0.00004512   -0.00004512   -0.00004512
     atom    8 type  3   force =     0.00004512    0.00004512    0.00004512
     atom    9 type  3   force =     0.00004512    0.00004512   -0.00004512
     atom   10 type  3   force =    -0.00004512   -0.00004512    0.00004512
     atom   11 type  3   force =     0.00004512   -0.00004512    0.00004512
     atom   12 type  3   force =    -0.00004512    0.00004512   -0.00004512
     atom   13 type  3   force =    -0.00004512    0.00004512    0.00004512
     atom   14 type  3   force =     0.00004512   -0.00004512   -0.00004512
     The non-local contrib.  to forces
     atom    1 type  1   force =     0.00000000   -0.00000000   -0.00000000
     atom    2 type  1   force =    -0.00000000    0.00000000   -0.00000000
     atom    3 type  2   force =    -0.00000000   -0.00000000    0.00000000
     atom    4 type  2   force =     0.00000000   -0.00000000    0.00000000
     atom    5 type  2   force =    -0.00000000   -0.00000000    0.00000000
     atom    6 type  2   force =    -0.00000000    0.00000000   -0.00000000
     atom    7 type  3   force =     0.05699563    0.05699563    0.05699563
     atom    8 type  3   force =    -0.05699563   -0.05699563   -0.05699563
     atom    9 type  3   force =    -0.05699563   -0.05699563    0.05699563
     atom   10 type  3   force =     0.05699563    0.05699563   -0.05699563
     atom   11 type  3   force =    -0.05699563    0.05699563   -0.05699563
     atom   12 type  3   force =     0.05699563   -0.05699563    0.05699563
     atom   13 type  3   force =     0.05699563   -0.05699563   -0.05699563
     atom   14 type  3   force =    -0.05699563    0.05699563    0.05699563
     The ionic contribution  to forces
     atom    1 type  1   force =     0.00000000    0.00000000    0.00000000
     atom    2 type  1   force =     0.00000000    0.00000000   -0.00000000
     atom    3 type  2   force =    -0.00000000    0.00000000    0.00000000
     atom    4 type  2   force =     0.00000000    0.00000000    0.00000000
     atom    5 type  2   force =     0.00000000    0.00000000    0.00000000
     atom    6 type  2   force =     0.00000000    0.00000000    0.00000000
     atom    7 type  3   force =    -2.52149753   -2.52149753   -2.52149753
     atom    8 type  3   force =     2.52149753    2.52149753    2.52149753
     atom    9 type  3   force =     2.52149753    2.52149753   -2.52149753
     atom   10 type  3   force =    -2.52149753   -2.52149753    2.52149753
     atom   11 type  3   force =     2.52149753   -2.52149753    2.52149753
     atom   12 type  3   force =    -2.52149753    2.52149753   -2.52149753
     atom   13 type  3   force =    -2.52149753    2.52149753    2.52149753
     atom   14 type  3   force =     2.52149753   -2.52149753   -2.52149753
     The local contribution  to forces
     atom    1 type  1   force =    -0.00000000   -0.00000000   -0.00000000
     atom    2 type  1   force =     0.00000000   -0.00000000    0.00000000
     atom    3 type  2   force =     0.00000000    0.00000000    0.00000000
     atom    4 type  2   force =     0.00000000    0.00000000    0.00000000
     atom    5 type  2   force =    -0.00000000    0.00000000   -0.00000000
     atom    6 type  2   force =     0.00000000   -0.00000000   -0.00000000
     atom    7 type  3   force =     2.46522671    2.46522671    2.46522671
     atom    8 type  3   force =    -2.46522671   -2.46522671   -2.46522671
     atom    9 type  3   force =    -2.46522671   -2.46522671    2.46522671
     atom   10 type  3   force =     2.46522671    2.46522671   -2.46522671
     atom   11 type  3   force =    -2.46522671    2.46522671   -2.46522671
     atom   12 type  3   force =     2.46522671   -2.46522671    2.46522671
     atom   13 type  3   force =     2.46522671   -2.46522671   -2.46522671
     atom   14 type  3   force =    -2.46522671    2.46522671    2.46522671
     The core correction contribution to forces
     atom    1 type  1   force =    -0.00000000   -0.00000000   -0.00000000
     atom    2 type  1   force =    -0.00000000   -0.00000000   -0.00000000
     atom    3 type  2   force =    -0.00000000   -0.00000000   -0.00000000
     atom    4 type  2   force =    -0.00000000   -0.00000000   -0.00000000
     atom    5 type  2   force =    -0.00000000   -0.00000000   -0.00000000
     atom    6 type  2   force =    -0.00000000    0.00000000   -0.00000000
     atom    7 type  3   force =    -0.00077414   -0.00077414   -0.00077414
     atom    8 type  3   force =     0.00077414    0.00077414    0.00077414
     atom    9 type  3   force =     0.00077414    0.00077414   -0.00077414
     atom   10 type  3   force =    -0.00077414   -0.00077414    0.00077414
     atom   11 type  3   force =     0.00077414   -0.00077414    0.00077414
     atom   12 type  3   force =    -0.00077414    0.00077414   -0.00077414
     atom   13 type  3   force =    -0.00077414    0.00077414    0.00077414
     atom   14 type  3   force =     0.00077414   -0.00077414   -0.00077414
     The Hubbard contrib.    to forces
     atom    1 type  1   force =     0.00000000    0.00000000    0.00000000
     atom    2 type  1   force =     0.00000000    0.00000000    0.00000000
     atom    3 type  2   force =     0.00000000    0.00000000    0.00000000
     atom    4 type  2   force =     0.00000000    0.00000000    0.00000000
     atom    5 type  2   force =     0.00000000    0.00000000    0.00000000
     atom    6 type  2   force =     0.00000000    0.00000000    0.00000000
     atom    7 type  3   force =     0.00000000    0.00000000    0.00000000
     atom    8 type  3   force =     0.00000000    0.00000000    0.00000000
     atom    9 type  3   force =     0.00000000    0.00000000    0.00000000
     atom   10 type  3   force =     0.00000000    0.00000000    0.00000000
     atom   11 type  3   force =     0.00000000    0.00000000    0.00000000
     atom   12 type  3   force =     0.00000000    0.00000000    0.00000000
     atom   13 type  3   force =     0.00000000    0.00000000    0.00000000
     atom   14 type  3   force =     0.00000000    0.00000000    0.00000000
     The SCF correction term to forces
     atom    1 type  1   force =     0.00000000    0.00000000    0.00000000
     atom    2 type  1   force =     0.00000000    0.00000000    0.00000000
     atom    3 type  2   force =     0.00000000    0.00000000   -0.00000000
     atom    4 type  2   force =    -0.00000000    0.00000000   -0.00000000
     atom    5 type  2   force =     0.00000000   -0.00000000    0.00000000
     atom    6 type  2   force =    -0.00000000    0.00000000    0.00000000
     atom    7 type  3   force =     0.00000422    0.00000422    0.00000422
     atom    8 type  3   force =    -0.00000422   -0.00000422   -0.00000422
     atom    9 type  3   force =    -0.00000422   -0.00000422    0.00000422
     atom   10 type  3   force =     0.00000422    0.00000422   -0.00000422
     atom   11 type  3   force =    -0.00000422    0.00000422   -0.00000422
     atom   12 type  3   force =     0.00000422   -0.00000422    0.00000422
     atom   13 type  3   force =     0.00000422   -0.00000422   -0.00000422
     atom   14 type  3   force =    -0.00000422    0.00000422    0.00000422

     Total force =     0.000221     Total SCF correction =     0.000021


     Computing stress (Cartesian axis) and pressure


     negative rho (up, down):  1.232E-04 2.931E-04
          total   stress  (Ry/bohr**3)                   (kbar)     P=       -0.65
  -0.00000442  -0.00000000  -0.00000000           -0.65       -0.00       -0.00
  -0.00000000  -0.00000442  -0.00000000           -0.00       -0.65       -0.00
  -0.00000000  -0.00000000  -0.00000442           -0.00       -0.00       -0.65

     kinetic stress (kbar)  52315.66      0.00      0.00
                                0.00  52315.66     -0.00
                                0.00     -0.00  52315.66

     local   stress (kbar)  16390.02      0.00      0.00
                                0.00  16390.02      0.00
                                0.00      0.00  16390.02

     nonloc. stress (kbar) -27061.68      0.00      0.00
                                0.00 -27061.68      0.00
                                0.00      0.00 -27061.68

     hartree stress (kbar)  27882.01     -0.00      0.00
                               -0.00  27882.01      0.00
                                0.00      0.00  27882.01

     exc-cor stress (kbar)  -3473.71     -0.00      0.00
                               -0.00  -3473.71      0.00
                                0.00      0.00  -3473.71

     corecor stress (kbar)  -8553.10     -0.00      0.00
                               -0.00  -8553.10     -0.00
                                0.00     -0.00  -8553.10

     ewald   stress (kbar) -57499.84     -0.00     -0.00
                               -0.00 -57499.84     -0.00
                               -0.00     -0.00 -57499.84

     hubbard stress (kbar)      0.00      0.00      0.00
                                0.00      0.00      0.00
                                0.00      0.00      0.00

     DFT-D   stress (kbar)      0.00      0.00      0.00
                                0.00      0.00      0.00
                                0.00      0.00      0.00

     XDM     stress (kbar)      0.00      0.00      0.00
                                0.00      0.00      0.00
                                0.00      0.00      0.00

     dft-nl  stress (kbar)      0.00      0.00      0.00
                                0.00      0.00      0.00
                                0.00      0.00      0.00

     TS-vdW  stress (kbar)      0.00      0.00      0.00
                                0.00      0.00      0.00
                                0.00      0.00      0.00

     MDB     stress (kbar)      0.00      0.00      0.00
                                0.00      0.00      0.00
                                0.00      0.00      0.00

     3D-RISM stress (kbar)      0.00      0.00      0.00
                                0.00      0.00      0.00
                                0.00      0.00      0.00


     Writing all to output data dir ./out/Fe3O4.save/

     init_run     :     25.91s CPU      9.44s WALL (       2 calls)
     electrons    :   2453.18s CPU    676.21s WALL (       6 calls)
     update_pot   :     32.56s CPU     10.32s WALL (       4 calls)
     forces       :     39.99s CPU     10.36s WALL (       6 calls)
     stress       :    145.95s CPU     40.68s WALL (       6 calls)

     Called by init_run:
     wfcinit      :     12.31s CPU      3.36s WALL (       2 calls)
     wfcinit:atom :      0.24s CPU      0.06s WALL (      36 calls)
     wfcinit:wfcr :     11.14s CPU      2.94s WALL (      36 calls)
     potinit      :      7.38s CPU      2.33s WALL (       2 calls)
     hinit0       :      5.05s CPU      3.18s WALL (       2 calls)

     Called by electrons:
     c_bands      :   1988.93s CPU    534.08s WALL (     137 calls)
     sum_band     :    312.55s CPU     95.33s WALL (     137 calls)
     v_of_rho     :     55.83s CPU     15.66s WALL (     143 calls)
     v_h          :      3.47s CPU      0.99s WALL (     143 calls)
     v_xc         :     56.73s CPU     15.91s WALL (     155 calls)
     newd         :     60.24s CPU     18.83s WALL (     143 calls)
     PAW_pot      :     28.67s CPU     10.29s WALL (     147 calls)
     mix_rho      :      7.01s CPU      1.81s WALL (     137 calls)

     Called by c_bands:
     init_us_2    :     11.50s CPU      5.44s WALL (    5256 calls)
     init_us_2:cp :     11.43s CPU      5.42s WALL (    5256 calls)
     cegterg      :   1928.75s CPU    494.14s WALL (    2466 calls)

     Called by sum_band:
     sum_band:wei :      0.78s CPU      0.29s WALL (     137 calls)
     sum_band:loo :    256.82s CPU     71.48s WALL (     137 calls)
     sum_band:buf :      1.04s CPU      0.76s WALL (    2466 calls)
     sum_band:ini :      3.94s CPU      2.40s WALL (    2466 calls)
     sum_band:cal :     34.12s CPU      7.05s WALL (    2538 calls)
     sum_band:bec :      4.82s CPU      3.62s WALL (    2538 calls)
     addusdens    :     48.66s CPU     20.55s WALL (     137 calls)
                                        0.00s GPU  (     137 calls)
     addusd:skk   :      0.15s CPU      0.16s WALL (     411 calls)
                                        0.00s GPU  (     411 calls)

     Called by *egterg:
     cdiaghg      :    319.15s CPU     80.68s WALL (   10185 calls)
     cegterg:over :     78.47s CPU     22.37s WALL (    7791 calls)
     cegterg:upda :     65.10s CPU     13.64s WALL (    7791 calls)
     cegterg:last :    107.21s CPU     29.61s WALL (    5582 calls)
     h_psi        :   1252.54s CPU    320.09s WALL (   10293 calls)
     s_psi        :     78.17s CPU     17.93s WALL (   10293 calls)
     g_psi        :      0.85s CPU      0.49s WALL (    7791 calls)

     Called by h_psi:
     h_psi:calbec :    113.75s CPU     21.09s WALL (   10293 calls)
     vloc_psi     :   1050.82s CPU    277.21s WALL (   10293 calls)
     add_vuspsi   :     83.64s CPU     20.13s WALL (   10293 calls)

     General routines
     calbec       :    154.07s CPU     29.51s WALL (   13371 calls)
     fft          :     32.21s CPU     10.61s WALL (    3807 calls)
     ffts         :      1.26s CPU      0.77s WALL (     560 calls)
     fftw         :   1001.55s CPU    264.14s WALL ( 1373742 calls)
     interpolate  :      2.78s CPU      1.38s WALL (     286 calls)

     Parallel routines

     PAW routines
     PAW_pot      :     28.67s CPU     10.29s WALL (     147 calls)
     PAW_symme    :      0.40s CPU      0.20s WALL (     284 calls)

     PWSCF        :  45m 1.91s CPU  12m32.68s WALL


   This run was terminated on:  11: 9:45  10Mar2025            

=------------------------------------------------------------------------------=
   JOB DONE.
=------------------------------------------------------------------------------=
